W -t * -x 500 -y 500
V -t * -v 1.0a5 -a 0
A -t * -n 1 -p 0 -o 0xffffffff -c 31 -a 1
A -t * -h 1 -m 2147483647 -s 0
n -t 10.000000 -s 0 -x 5.000000 -y 2.000000 -u 0.683941 -v 0.729537 -T 21.931712
+ -t 10.000000000 -s 0 -d -1 -p tcp -e 40 -c 2 -a 0 -i 0 -k AGT 
- -t 10.000000000 -s 0 -d -1 -p tcp -e 40 -c 2 -a 0 -i 0 -k AGT
h -t 10.000000000 -s 0 -d -1 -p tcp -e 40 -c 2 -a 0 -i 0 -k AGT
+ -t 10.000000000 -s 0 -d -1 -p AODV -e 48 -c 2 -a 0 -i 0 -k RTR 
- -t 10.000000000 -s 0 -d -1 -p AODV -e 48 -c 2 -a 0 -i 0 -k RTR
h -t 10.000000000 -s 0 -d -1 -p AODV -e 48 -c 2 -a 0 -i 0 -k RTR
+ -t 12.000000000 -s 0 -d -1 -p AODV -e 48 -c 2 -a 0 -i 0 -k RTR 
- -t 12.000000000 -s 0 -d -1 -p AODV -e 48 -c 2 -a 0 -i 0 -k RTR
h -t 12.000000000 -s 0 -d -1 -p AODV -e 48 -c 2 -a 0 -i 0 -k RTR
+ -t 16.000000000 -s 0 -d -1 -p tcp -e 40 -c 2 -a 0 -i 1 -k AGT 
- -t 16.000000000 -s 0 -d -1 -p tcp -e 40 -c 2 -a 0 -i 1 -k AGT
h -t 16.000000000 -s 0 -d -1 -p tcp -e 40 -c 2 -a 0 -i 1 -k AGT
+ -t 16.000000000 -s 0 -d -1 -p AODV -e 48 -c 2 -a 0 -i 0 -k RTR 
- -t 16.000000000 -s 0 -d -1 -p AODV -e 48 -c 2 -a 0 -i 0 -k RTR
h -t 16.000000000 -s 0 -d -1 -p AODV -e 48 -c 2 -a 0 -i 0 -k RTR
+ -t 21.500000000 -s 0 -d -1 -p AODV -e 48 -c 2 -a 0 -i 0 -k RTR 
- -t 21.500000000 -s 0 -d -1 -p AODV -e 48 -c 2 -a 0 -i 0 -k RTR
h -t 21.500000000 -s 0 -d -1 -p AODV -e 48 -c 2 -a 0 -i 0 -k RTR
+ -t 28.000000000 -s 0 -d -1 -p tcp -e 40 -c 2 -a 0 -i 2 -k AGT 
- -t 28.000000000 -s 0 -d -1 -p tcp -e 40 -c 2 -a 0 -i 2 -k AGT
h -t 28.000000000 -s 0 -d -1 -p tcp -e 40 -c 2 -a 0 -i 2 -k AGT
d -t 29.000000000 -s 0 -d -1 -p tcp -e 60 -c 2 -a 0 -i 0 -k RTR
d -t 29.000000000 -s 0 -d -1 -p tcp -e 60 -c 2 -a 0 -i 1 -k RTR
d -t 29.000000000 -s 0 -d -1 -p tcp -e 60 -c 2 -a 0 -i 2 -k RTR
n -t 50.000000 -s 1 -x 390.000000 -y 385.000000 -u -10.606602 -v -10.606602 -T 34.412530
+ -t 52.000000000 -s 0 -d -1 -p tcp -e 40 -c 2 -a 0 -i 3 -k AGT 
- -t 52.000000000 -s 0 -d -1 -p tcp -e 40 -c 2 -a 0 -i 3 -k AGT
h -t 52.000000000 -s 0 -d -1 -p tcp -e 40 -c 2 -a 0 -i 3 -k AGT
+ -t 52.000000000 -s 0 -d -1 -p AODV -e 48 -c 2 -a 0 -i 0 -k RTR 
- -t 52.000000000 -s 0 -d -1 -p AODV -e 48 -c 2 -a 0 -i 0 -k RTR
h -t 52.000000000 -s 0 -d -1 -p AODV -e 48 -c 2 -a 0 -i 0 -k RTR
+ -t 54.000000000 -s 0 -d -1 -p AODV -e 48 -c 2 -a 0 -i 0 -k RTR 
- -t 54.000000000 -s 0 -d -1 -p AODV -e 48 -c 2 -a 0 -i 0 -k RTR
h -t 54.000000000 -s 0 -d -1 -p AODV -e 48 -c 2 -a 0 -i 0 -k RTR
+ -t 58.000000000 -s 0 -d -1 -p AODV -e 48 -c 2 -a 0 -i 0 -k RTR 
- -t 58.000000000 -s 0 -d -1 -p AODV -e 48 -c 2 -a 0 -i 0 -k RTR
h -t 58.000000000 -s 0 -d -1 -p AODV -e 48 -c 2 -a 0 -i 0 -k RTR
+ -t 63.500000000 -s 0 -d -1 -p AODV -e 48 -c 2 -a 0 -i 0 -k RTR 
- -t 63.500000000 -s 0 -d -1 -p AODV -e 48 -c 2 -a 0 -i 0 -k RTR
h -t 63.500000000 -s 0 -d -1 -p AODV -e 48 -c 2 -a 0 -i 0 -k RTR
d -t 71.000000000 -s 0 -d -1 -p tcp -e 60 -c 2 -a 0 -i 3 -k RTR
n -t 100.000000 -s 1 -x 25.000000 -y 20.000000 -u 10.663779 -v 10.549115 -T 43.605555
+ -t 100.000000000 -s 0 -d -1 -p tcp -e 40 -c 2 -a 0 -i 4 -k AGT 
- -t 100.000000000 -s 0 -d -1 -p tcp -e 40 -c 2 -a 0 -i 4 -k AGT
h -t 100.000000000 -s 0 -d -1 -p tcp -e 40 -c 2 -a 0 -i 4 -k AGT
+ -t 100.000000000 -s 0 -d -1 -p AODV -e 48 -c 2 -a 0 -i 0 -k RTR 
- -t 100.000000000 -s 0 -d -1 -p AODV -e 48 -c 2 -a 0 -i 0 -k RTR
h -t 100.000000000 -s 0 -d -1 -p AODV -e 48 -c 2 -a 0 -i 0 -k RTR
r -t 100.000900018 -s 1 -d -1 -p AODV -e 48 -c 2 -a 0 -i 0 -k RTR
+ -t 100.000900018 -s 1 -d 0 -p AODV -e 44 -c 2 -a 0 -i 0 -k RTR 
- -t 100.000900018 -s 1 -d 0 -p AODV -e 44 -c 2 -a 0 -i 0 -k RTR
h -t 100.000900018 -s 1 -d 0 -p AODV -e 44 -c 2 -a 0 -i 0 -k RTR
+ -t 100.005134145 -s 0 -d 1 -p tcp -e 60 -c 2 -a 0 -i 4 -k RTR 
- -t 100.005134145 -s 0 -d 1 -p tcp -e 60 -c 2 -a 0 -i 4 -k RTR
h -t 100.005134145 -s 0 -d 1 -p tcp -e 60 -c 2 -a 0 -i 4 -k RTR
r -t 100.007310199 -s 1 -d 1 -p tcp -e 60 -c 2 -a 0 -i 4 -k AGT
+ -t 100.007310199 -s 1 -d -1 -p ack -e 40 -c 2 -a 0 -i 5 -k AGT 
- -t 100.007310199 -s 1 -d -1 -p ack -e 40 -c 2 -a 0 -i 5 -k AGT
h -t 100.007310199 -s 1 -d -1 -p ack -e 40 -c 2 -a 0 -i 5 -k AGT
+ -t 100.007310199 -s 1 -d 0 -p ack -e 60 -c 2 -a 0 -i 5 -k RTR 
- -t 100.007310199 -s 1 -d 0 -p ack -e 60 -c 2 -a 0 -i 5 -k RTR
h -t 100.007310199 -s 1 -d 0 -p ack -e 60 -c 2 -a 0 -i 5 -k RTR
r -t 100.009786254 -s 0 -d 0 -p ack -e 60 -c 2 -a 0 -i 5 -k AGT
+ -t 100.009786254 -s 0 -d -1 -p tcp -e 1040 -c 2 -a 0 -i 6 -k AGT 
- -t 100.009786254 -s 0 -d -1 -p tcp -e 1040 -c 2 -a 0 -i 6 -k AGT
h -t 100.009786254 -s 0 -d -1 -p tcp -e 1040 -c 2 -a 0 -i 6 -k AGT
+ -t 100.009786254 -s 0 -d -1 -p tcp -e 1040 -c 2 -a 0 -i 7 -k AGT 
- -t 100.009786254 -s 0 -d -1 -p tcp -e 1040 -c 2 -a 0 -i 7 -k AGT
h -t 100.009786254 -s 0 -d -1 -p tcp -e 1040 -c 2 -a 0 -i 7 -k AGT
+ -t 100.009786254 -s 0 -d 1 -p tcp -e 1060 -c 2 -a 0 -i 6 -k RTR 
- -t 100.009786254 -s 0 -d 1 -p tcp -e 1060 -c 2 -a 0 -i 6 -k RTR
h -t 100.009786254 -s 0 -d 1 -p tcp -e 1060 -c 2 -a 0 -i 6 -k RTR
+ -t 100.009786254 -s 0 -d 1 -p tcp -e 1060 -c 2 -a 0 -i 7 -k RTR 
- -t 100.009786254 -s 0 -d 1 -p tcp -e 1060 -c 2 -a 0 -i 7 -k RTR
h -t 100.009786254 -s 0 -d 1 -p tcp -e 1060 -c 2 -a 0 -i 7 -k RTR
r -t 100.020082310 -s 1 -d 1 -p tcp -e 1060 -c 2 -a 0 -i 6 -k AGT
+ -t 100.020082310 -s 1 -d -1 -p ack -e 40 -c 2 -a 0 -i 8 -k AGT 
- -t 100.020082310 -s 1 -d -1 -p ack -e 40 -c 2 -a 0 -i 8 -k AGT
h -t 100.020082310 -s 1 -d -1 -p ack -e 40 -c 2 -a 0 -i 8 -k AGT
+ -t 100.020082310 -s 1 -d 0 -p ack -e 60 -c 2 -a 0 -i 8 -k RTR 
- -t 100.020082310 -s 1 -d 0 -p ack -e 60 -c 2 -a 0 -i 8 -k RTR
h -t 100.020082310 -s 1 -d 0 -p ack -e 60 -c 2 -a 0 -i 8 -k RTR
r -t 100.022178366 -s 0 -d 0 -p ack -e 60 -c 2 -a 0 -i 8 -k AGT
+ -t 100.022178366 -s 0 -d -1 -p tcp -e 1040 -c 2 -a 0 -i 9 -k AGT 
- -t 100.022178366 -s 0 -d -1 -p tcp -e 1040 -c 2 -a 0 -i 9 -k AGT
h -t 100.022178366 -s 0 -d -1 -p tcp -e 1040 -c 2 -a 0 -i 9 -k AGT
+ -t 100.022178366 -s 0 -d 1 -p tcp -e 1060 -c 2 -a 0 -i 9 -k RTR 
- -t 100.022178366 -s 0 -d 1 -p tcp -e 1060 -c 2 -a 0 -i 9 -k RTR
h -t 100.022178366 -s 0 -d 1 -p tcp -e 1060 -c 2 -a 0 -i 9 -k RTR
r -t 100.032434423 -s 1 -d 1 -p tcp -e 1060 -c 2 -a 0 -i 7 -k AGT
+ -t 100.032434423 -s 1 -d -1 -p ack -e 40 -c 2 -a 0 -i 10 -k AGT 
- -t 100.032434423 -s 1 -d -1 -p ack -e 40 -c 2 -a 0 -i 10 -k AGT
h -t 100.032434423 -s 1 -d -1 -p ack -e 40 -c 2 -a 0 -i 10 -k AGT
+ -t 100.032434423 -s 1 -d 0 -p ack -e 60 -c 2 -a 0 -i 10 -k RTR 
- -t 100.032434423 -s 1 -d 0 -p ack -e 60 -c 2 -a 0 -i 10 -k RTR
h -t 100.032434423 -s 1 -d 0 -p ack -e 60 -c 2 -a 0 -i 10 -k RTR
r -t 100.034390482 -s 0 -d 0 -p ack -e 60 -c 2 -a 0 -i 10 -k AGT
+ -t 100.034390482 -s 0 -d -1 -p tcp -e 1040 -c 2 -a 0 -i 11 -k AGT 
- -t 100.034390482 -s 0 -d -1 -p tcp -e 1040 -c 2 -a 0 -i 11 -k AGT
h -t 100.034390482 -s 0 -d -1 -p tcp -e 1040 -c 2 -a 0 -i 11 -k AGT
+ -t 100.034390482 -s 0 -d 1 -p tcp -e 1060 -c 2 -a 0 -i 11 -k RTR 
- -t 100.034390482 -s 0 -d 1 -p tcp -e 1060 -c 2 -a 0 -i 11 -k RTR
h -t 100.034390482 -s 0 -d 1 -p tcp -e 1060 -c 2 -a 0 -i 11 -k RTR
r -t 100.044626541 -s 1 -d 1 -p tcp -e 1060 -c 2 -a 0 -i 9 -k AGT
+ -t 100.044626541 -s 1 -d -1 -p ack -e 40 -c 2 -a 0 -i 12 -k AGT 
- -t 100.044626541 -s 1 -d -1 -p ack -e 40 -c 2 -a 0 -i 12 -k AGT
h -t 100.044626541 -s 1 -d -1 -p ack -e 40 -c 2 -a 0 -i 12 -k AGT
+ -t 100.044626541 -s 1 -d 0 -p ack -e 60 -c 2 -a 0 -i 12 -k RTR 
- -t 100.044626541 -s 1 -d 0 -p ack -e 60 -c 2 -a 0 -i 12 -k RTR
h -t 100.044626541 -s 1 -d 0 -p ack -e 60 -c 2 -a 0 -i 12 -k RTR
r -t 100.054582621 -s 1 -d 1 -p tcp -e 1060 -c 2 -a 0 -i 11 -k AGT
+ -t 100.054582621 -s 1 -d -1 -p ack -e 40 -c 2 -a 0 -i 13 -k AGT 
- -t 100.054582621 -s 1 -d -1 -p ack -e 40 -c 2 -a 0 -i 13 -k AGT
h -t 100.054582621 -s 1 -d -1 -p ack -e 40 -c 2 -a 0 -i 13 -k AGT
+ -t 100.054582621 -s 1 -d 0 -p ack -e 60 -c 2 -a 0 -i 13 -k RTR 
- -t 100.054582621 -s 1 -d 0 -p ack -e 60 -c 2 -a 0 -i 13 -k RTR
h -t 100.054582621 -s 1 -d 0 -p ack -e 60 -c 2 -a 0 -i 13 -k RTR
r -t 100.056718682 -s 0 -d 0 -p ack -e 60 -c 2 -a 0 -i 12 -k AGT
+ -t 100.056718682 -s 0 -d -1 -p tcp -e 1040 -c 2 -a 0 -i 14 -k AGT 
- -t 100.056718682 -s 0 -d -1 -p tcp -e 1040 -c 2 -a 0 -i 14 -k AGT
h -t 100.056718682 -s 0 -d -1 -p tcp -e 1040 -c 2 -a 0 -i 14 -k AGT
+ -t 100.056718682 -s 0 -d -1 -p tcp -e 1040 -c 2 -a 0 -i 15 -k AGT 
- -t 100.056718682 -s 0 -d -1 -p tcp -e 1040 -c 2 -a 0 -i 15 -k AGT
h -t 100.056718682 -s 0 -d -1 -p tcp -e 1040 -c 2 -a 0 -i 15 -k AGT
+ -t 100.056718682 -s 0 -d 1 -p tcp -e 1060 -c 2 -a 0 -i 14 -k RTR 
- -t 100.056718682 -s 0 -d 1 -p tcp -e 1060 -c 2 -a 0 -i 14 -k RTR
h -t 100.056718682 -s 0 -d 1 -p tcp -e 1060 -c 2 -a 0 -i 14 -k RTR
+ -t 100.056718682 -s 0 -d 1 -p tcp -e 1060 -c 2 -a 0 -i 15 -k RTR 
- -t 100.056718682 -s 0 -d 1 -p tcp -e 1060 -c 2 -a 0 -i 15 -k RTR
h -t 100.056718682 -s 0 -d 1 -p tcp -e 1060 -c 2 -a 0 -i 15 -k RTR
r -t 100.066694744 -s 1 -d 1 -p tcp -e 1060 -c 2 -a 0 -i 14 -k AGT
+ -t 100.066694744 -s 1 -d -1 -p ack -e 40 -c 2 -a 0 -i 16 -k AGT 
- -t 100.066694744 -s 1 -d -1 -p ack -e 40 -c 2 -a 0 -i 16 -k AGT
h -t 100.066694744 -s 1 -d -1 -p ack -e 40 -c 2 -a 0 -i 16 -k AGT
+ -t 100.066694744 -s 1 -d 0 -p ack -e 60 -c 2 -a 0 -i 16 -k RTR 
- -t 100.066694744 -s 1 -d 0 -p ack -e 60 -c 2 -a 0 -i 16 -k RTR
h -t 100.066694744 -s 1 -d 0 -p ack -e 60 -c 2 -a 0 -i 16 -k RTR
r -t 100.076810829 -s 1 -d 1 -p tcp -e 1060 -c 2 -a 0 -i 15 -k AGT
+ -t 100.076810829 -s 1 -d -1 -p ack -e 40 -c 2 -a 0 -i 17 -k AGT 
- -t 100.076810829 -s 1 -d -1 -p ack -e 40 -c 2 -a 0 -i 17 -k AGT
h -t 100.076810829 -s 1 -d -1 -p ack -e 40 -c 2 -a 0 -i 17 -k AGT
+ -t 100.076810829 -s 1 -d 0 -p ack -e 60 -c 2 -a 0 -i 17 -k RTR 
- -t 100.076810829 -s 1 -d 0 -p ack -e 60 -c 2 -a 0 -i 17 -k RTR
h -t 100.076810829 -s 1 -d 0 -p ack -e 60 -c 2 -a 0 -i 17 -k RTR
r -t 100.078966893 -s 0 -d 0 -p ack -e 60 -c 2 -a 0 -i 13 -k AGT
+ -t 100.078966893 -s 0 -d -1 -p tcp -e 1040 -c 2 -a 0 -i 18 -k AGT 
- -t 100.078966893 -s 0 -d -1 -p tcp -e 1040 -c 2 -a 0 -i 18 -k AGT
h -t 100.078966893 -s 0 -d -1 -p tcp -e 1040 -c 2 -a 0 -i 18 -k AGT
+ -t 100.078966893 -s 0 -d 1 -p tcp -e 1060 -c 2 -a 0 -i 18 -k RTR 
- -t 100.078966893 -s 0 -d 1 -p tcp -e 1060 -c 2 -a 0 -i 18 -k RTR
h -t 100.078966893 -s 0 -d 1 -p tcp -e 1060 -c 2 -a 0 -i 18 -k RTR
r -t 100.089262959 -s 1 -d 1 -p tcp -e 1060 -c 2 -a 0 -i 18 -k AGT
+ -t 100.089262959 -s 1 -d -1 -p ack -e 40 -c 2 -a 0 -i 19 -k AGT 
- -t 100.089262959 -s 1 -d -1 -p ack -e 40 -c 2 -a 0 -i 19 -k AGT
h -t 100.089262959 -s 1 -d -1 -p ack -e 40 -c 2 -a 0 -i 19 -k AGT
+ -t 100.089262959 -s 1 -d 0 -p ack -e 60 -c 2 -a 0 -i 19 -k RTR 
- -t 100.089262959 -s 1 -d 0 -p ack -e 60 -c 2 -a 0 -i 19 -k RTR
h -t 100.089262959 -s 1 -d 0 -p ack -e 60 -c 2 -a 0 -i 19 -k RTR
r -t 100.091239025 -s 0 -d 0 -p ack -e 60 -c 2 -a 0 -i 16 -k AGT
+ -t 100.091239025 -s 0 -d -1 -p tcp -e 1040 -c 2 -a 0 -i 20 -k AGT 
- -t 100.091239025 -s 0 -d -1 -p tcp -e 1040 -c 2 -a 0 -i 20 -k AGT
h -t 100.091239025 -s 0 -d -1 -p tcp -e 1040 -c 2 -a 0 -i 20 -k AGT
+ -t 100.091239025 -s 0 -d 1 -p tcp -e 1060 -c 2 -a 0 -i 20 -k RTR 
- -t 100.091239025 -s 0 -d 1 -p tcp -e 1060 -c 2 -a 0 -i 20 -k RTR
h -t 100.091239025 -s 0 -d 1 -p tcp -e 1060 -c 2 -a 0 -i 20 -k RTR
r -t 100.093535114 -s 0 -d 0 -p ack -e 60 -c 2 -a 0 -i 17 -k AGT
+ -t 100.093535114 -s 0 -d -1 -p tcp -e 1040 -c 2 -a 0 -i 21 -k AGT 
- -t 100.093535114 -s 0 -d -1 -p tcp -e 1040 -c 2 -a 0 -i 21 -k AGT
h -t 100.093535114 -s 0 -d -1 -p tcp -e 1040 -c 2 -a 0 -i 21 -k AGT
+ -t 100.093535114 -s 0 -d -1 -p tcp -e 1040 -c 2 -a 0 -i 22 -k AGT 
- -t 100.093535114 -s 0 -d -1 -p tcp -e 1040 -c 2 -a 0 -i 22 -k AGT
h -t 100.093535114 -s 0 -d -1 -p tcp -e 1040 -c 2 -a 0 -i 22 -k AGT
+ -t 100.093535114 -s 0 -d 1 -p tcp -e 1060 -c 2 -a 0 -i 21 -k RTR 
- -t 100.093535114 -s 0 -d 1 -p tcp -e 1060 -c 2 -a 0 -i 21 -k RTR
h -t 100.093535114 -s 0 -d 1 -p tcp -e 1060 -c 2 -a 0 -i 21 -k RTR
+ -t 100.093535114 -s 0 -d 1 -p tcp -e 1060 -c 2 -a 0 -i 22 -k RTR 
- -t 100.093535114 -s 0 -d 1 -p tcp -e 1060 -c 2 -a 0 -i 22 -k RTR
h -t 100.093535114 -s 0 -d 1 -p tcp -e 1060 -c 2 -a 0 -i 22 -k RTR
r -t 100.095511204 -s 0 -d 0 -p ack -e 60 -c 2 -a 0 -i 19 -k AGT
+ -t 100.095511204 -s 0 -d -1 -p tcp -e 1040 -c 2 -a 0 -i 23 -k AGT 
- -t 100.095511204 -s 0 -d -1 -p tcp -e 1040 -c 2 -a 0 -i 23 -k AGT
h -t 100.095511204 -s 0 -d -1 -p tcp -e 1040 -c 2 -a 0 -i 23 -k AGT
+ -t 100.095511204 -s 0 -d 1 -p tcp -e 1060 -c 2 -a 0 -i 23 -k RTR 
- -t 100.095511204 -s 0 -d 1 -p tcp -e 1060 -c 2 -a 0 -i 23 -k RTR
h -t 100.095511204 -s 0 -d 1 -p tcp -e 1060 -c 2 -a 0 -i 23 -k RTR
r -t 100.105547271 -s 1 -d 1 -p tcp -e 1060 -c 2 -a 0 -i 20 -k AGT
+ -t 100.105547271 -s 1 -d -1 -p ack -e 40 -c 2 -a 0 -i 24 -k AGT 
- -t 100.105547271 -s 1 -d -1 -p ack -e 40 -c 2 -a 0 -i 24 -k AGT
h -t 100.105547271 -s 1 -d -1 -p ack -e 40 -c 2 -a 0 -i 24 -k AGT
+ -t 100.105547271 -s 1 -d 0 -p ack -e 60 -c 2 -a 0 -i 24 -k RTR 
- -t 100.105547271 -s 1 -d 0 -p ack -e 60 -c 2 -a 0 -i 24 -k RTR
h -t 100.105547271 -s 1 -d 0 -p ack -e 60 -c 2 -a 0 -i 24 -k RTR
r -t 100.107683340 -s 0 -d 0 -p ack -e 60 -c 2 -a 0 -i 24 -k AGT
+ -t 100.107683340 -s 0 -d -1 -p tcp -e 1040 -c 2 -a 0 -i 25 -k AGT 
- -t 100.107683340 -s 0 -d -1 -p tcp -e 1040 -c 2 -a 0 -i 25 -k AGT
h -t 100.107683340 -s 0 -d -1 -p tcp -e 1040 -c 2 -a 0 -i 25 -k AGT
+ -t 100.107683340 -s 0 -d 1 -p tcp -e 1060 -c 2 -a 0 -i 25 -k RTR 
- -t 100.107683340 -s 0 -d 1 -p tcp -e 1060 -c 2 -a 0 -i 25 -k RTR
h -t 100.107683340 -s 0 -d 1 -p tcp -e 1060 -c 2 -a 0 -i 25 -k RTR
r -t 100.117779409 -s 1 -d 1 -p tcp -e 1060 -c 2 -a 0 -i 21 -k AGT
+ -t 100.117779409 -s 1 -d -1 -p ack -e 40 -c 2 -a 0 -i 26 -k AGT 
- -t 100.117779409 -s 1 -d -1 -p ack -e 40 -c 2 -a 0 -i 26 -k AGT
h -t 100.117779409 -s 1 -d -1 -p ack -e 40 -c 2 -a 0 -i 26 -k AGT
+ -t 100.117779409 -s 1 -d 0 -p ack -e 60 -c 2 -a 0 -i 26 -k RTR 
- -t 100.117779409 -s 1 -d 0 -p ack -e 60 -c 2 -a 0 -i 26 -k RTR
h -t 100.117779409 -s 1 -d 0 -p ack -e 60 -c 2 -a 0 -i 26 -k RTR
r -t 100.119795479 -s 0 -d 0 -p ack -e 60 -c 2 -a 0 -i 26 -k AGT
+ -t 100.119795479 -s 0 -d -1 -p tcp -e 1040 -c 2 -a 0 -i 27 -k AGT 
- -t 100.119795479 -s 0 -d -1 -p tcp -e 1040 -c 2 -a 0 -i 27 -k AGT
h -t 100.119795479 -s 0 -d -1 -p tcp -e 1040 -c 2 -a 0 -i 27 -k AGT
+ -t 100.119795479 -s 0 -d 1 -p tcp -e 1060 -c 2 -a 0 -i 27 -k RTR 
- -t 100.119795479 -s 0 -d 1 -p tcp -e 1060 -c 2 -a 0 -i 27 -k RTR
h -t 100.119795479 -s 0 -d 1 -p tcp -e 1060 -c 2 -a 0 -i 27 -k RTR
r -t 100.129931550 -s 1 -d 1 -p tcp -e 1060 -c 2 -a 0 -i 22 -k AGT
+ -t 100.129931550 -s 1 -d -1 -p ack -e 40 -c 2 -a 0 -i 28 -k AGT 
- -t 100.129931550 -s 1 -d -1 -p ack -e 40 -c 2 -a 0 -i 28 -k AGT
h -t 100.129931550 -s 1 -d -1 -p ack -e 40 -c 2 -a 0 -i 28 -k AGT
+ -t 100.129931550 -s 1 -d 0 -p ack -e 60 -c 2 -a 0 -i 28 -k RTR 
- -t 100.129931550 -s 1 -d 0 -p ack -e 60 -c 2 -a 0 -i 28 -k RTR
h -t 100.129931550 -s 1 -d 0 -p ack -e 60 -c 2 -a 0 -i 28 -k RTR
r -t 100.131967623 -s 0 -d 0 -p ack -e 60 -c 2 -a 0 -i 28 -k AGT
+ -t 100.131967623 -s 0 -d -1 -p tcp -e 1040 -c 2 -a 0 -i 29 -k AGT 
- -t 100.131967623 -s 0 -d -1 -p tcp -e 1040 -c 2 -a 0 -i 29 -k AGT
h -t 100.131967623 -s 0 -d -1 -p tcp -e 1040 -c 2 -a 0 -i 29 -k AGT
+ -t 100.131967623 -s 0 -d 1 -p tcp -e 1060 -c 2 -a 0 -i 29 -k RTR 
- -t 100.131967623 -s 0 -d 1 -p tcp -e 1060 -c 2 -a 0 -i 29 -k RTR
h -t 100.131967623 -s 0 -d 1 -p tcp -e 1060 -c 2 -a 0 -i 29 -k RTR
r -t 100.142323695 -s 1 -d 1 -p tcp -e 1060 -c 2 -a 0 -i 23 -k AGT
+ -t 100.142323695 -s 1 -d -1 -p ack -e 40 -c 2 -a 0 -i 30 -k AGT 
- -t 100.142323695 -s 1 -d -1 -p ack -e 40 -c 2 -a 0 -i 30 -k AGT
h -t 100.142323695 -s 1 -d -1 -p ack -e 40 -c 2 -a 0 -i 30 -k AGT
+ -t 100.142323695 -s 1 -d 0 -p ack -e 60 -c 2 -a 0 -i 30 -k RTR 
- -t 100.142323695 -s 1 -d 0 -p ack -e 60 -c 2 -a 0 -i 30 -k RTR
h -t 100.142323695 -s 1 -d 0 -p ack -e 60 -c 2 -a 0 -i 30 -k RTR
r -t 100.144459769 -s 0 -d 0 -p ack -e 60 -c 2 -a 0 -i 30 -k AGT
+ -t 100.144459769 -s 0 -d -1 -p tcp -e 1040 -c 2 -a 0 -i 31 -k AGT 
- -t 100.144459769 -s 0 -d -1 -p tcp -e 1040 -c 2 -a 0 -i 31 -k AGT
h -t 100.144459769 -s 0 -d -1 -p tcp -e 1040 -c 2 -a 0 -i 31 -k AGT
+ -t 100.144459769 -s 0 -d -1 -p tcp -e 1040 -c 2 -a 0 -i 32 -k AGT 
- -t 100.144459769 -s 0 -d -1 -p tcp -e 1040 -c 2 -a 0 -i 32 -k AGT
h -t 100.144459769 -s 0 -d -1 -p tcp -e 1040 -c 2 -a 0 -i 32 -k AGT
+ -t 100.144459769 -s 0 -d 1 -p tcp -e 1060 -c 2 -a 0 -i 31 -k RTR 
- -t 100.144459769 -s 0 -d 1 -p tcp -e 1060 -c 2 -a 0 -i 31 -k RTR
h -t 100.144459769 -s 0 -d 1 -p tcp -e 1060 -c 2 -a 0 -i 31 -k RTR
+ -t 100.144459769 -s 0 -d 1 -p tcp -e 1060 -c 2 -a 0 -i 32 -k RTR 
- -t 100.144459769 -s 0 -d 1 -p tcp -e 1060 -c 2 -a 0 -i 32 -k RTR
h -t 100.144459769 -s 0 -d 1 -p tcp -e 1060 -c 2 -a 0 -i 32 -k RTR
r -t 100.154775844 -s 1 -d 1 -p tcp -e 1060 -c 2 -a 0 -i 25 -k AGT
+ -t 100.154775844 -s 1 -d -1 -p ack -e 40 -c 2 -a 0 -i 33 -k AGT 
- -t 100.154775844 -s 1 -d -1 -p ack -e 40 -c 2 -a 0 -i 33 -k AGT
h -t 100.154775844 -s 1 -d -1 -p ack -e 40 -c 2 -a 0 -i 33 -k AGT
+ -t 100.154775844 -s 1 -d 0 -p ack -e 60 -c 2 -a 0 -i 33 -k RTR 
- -t 100.154775844 -s 1 -d 0 -p ack -e 60 -c 2 -a 0 -i 33 -k RTR
h -t 100.154775844 -s 1 -d 0 -p ack -e 60 -c 2 -a 0 -i 33 -k RTR
r -t 100.156831920 -s 0 -d 0 -p ack -e 60 -c 2 -a 0 -i 33 -k AGT
+ -t 100.156831920 -s 0 -d -1 -p tcp -e 1040 -c 2 -a 0 -i 34 -k AGT 
- -t 100.156831920 -s 0 -d -1 -p tcp -e 1040 -c 2 -a 0 -i 34 -k AGT
h -t 100.156831920 -s 0 -d -1 -p tcp -e 1040 -c 2 -a 0 -i 34 -k AGT
+ -t 100.156831920 -s 0 -d 1 -p tcp -e 1060 -c 2 -a 0 -i 34 -k RTR 
- -t 100.156831920 -s 0 -d 1 -p tcp -e 1060 -c 2 -a 0 -i 34 -k RTR
h -t 100.156831920 -s 0 -d 1 -p tcp -e 1060 -c 2 -a 0 -i 34 -k RTR
r -t 100.166987996 -s 1 -d 1 -p tcp -e 1060 -c 2 -a 0 -i 27 -k AGT
+ -t 100.166987996 -s 1 -d -1 -p ack -e 40 -c 2 -a 0 -i 35 -k AGT 
- -t 100.166987996 -s 1 -d -1 -p ack -e 40 -c 2 -a 0 -i 35 -k AGT
h -t 100.166987996 -s 1 -d -1 -p ack -e 40 -c 2 -a 0 -i 35 -k AGT
+ -t 100.166987996 -s 1 -d 0 -p ack -e 60 -c 2 -a 0 -i 35 -k RTR 
- -t 100.166987996 -s 1 -d 0 -p ack -e 60 -c 2 -a 0 -i 35 -k RTR
h -t 100.166987996 -s 1 -d 0 -p ack -e 60 -c 2 -a 0 -i 35 -k RTR
r -t 100.178450100 -s 1 -d 1 -p tcp -e 1060 -c 2 -a 0 -i 29 -k AGT
+ -t 100.178450100 -s 1 -d -1 -p ack -e 40 -c 2 -a 0 -i 36 -k AGT 
- -t 100.178450100 -s 1 -d -1 -p ack -e 40 -c 2 -a 0 -i 36 -k AGT
h -t 100.178450100 -s 1 -d -1 -p ack -e 40 -c 2 -a 0 -i 36 -k AGT
+ -t 100.178450100 -s 1 -d 0 -p ack -e 60 -c 2 -a 0 -i 36 -k RTR 
- -t 100.178450100 -s 1 -d 0 -p ack -e 60 -c 2 -a 0 -i 36 -k RTR
h -t 100.178450100 -s 1 -d 0 -p ack -e 60 -c 2 -a 0 -i 36 -k RTR
r -t 100.180846179 -s 0 -d 0 -p ack -e 60 -c 2 -a 0 -i 35 -k AGT
+ -t 100.180846179 -s 0 -d -1 -p tcp -e 1040 -c 2 -a 0 -i 37 -k AGT 
- -t 100.180846179 -s 0 -d -1 -p tcp -e 1040 -c 2 -a 0 -i 37 -k AGT
h -t 100.180846179 -s 0 -d -1 -p tcp -e 1040 -c 2 -a 0 -i 37 -k AGT
+ -t 100.180846179 -s 0 -d 1 -p tcp -e 1060 -c 2 -a 0 -i 37 -k RTR 
- -t 100.180846179 -s 0 -d 1 -p tcp -e 1060 -c 2 -a 0 -i 37 -k RTR
h -t 100.180846179 -s 0 -d 1 -p tcp -e 1060 -c 2 -a 0 -i 37 -k RTR
r -t 100.182782285 -s 0 -d 0 -p ack -e 60 -c 2 -a 0 -i 36 -k AGT
+ -t 100.182782285 -s 0 -d -1 -p tcp -e 1040 -c 2 -a 0 -i 38 -k AGT 
- -t 100.182782285 -s 0 -d -1 -p tcp -e 1040 -c 2 -a 0 -i 38 -k AGT
h -t 100.182782285 -s 0 -d -1 -p tcp -e 1040 -c 2 -a 0 -i 38 -k AGT
+ -t 100.182782285 -s 0 -d 1 -p tcp -e 1060 -c 2 -a 0 -i 38 -k RTR 
- -t 100.182782285 -s 0 -d 1 -p tcp -e 1060 -c 2 -a 0 -i 38 -k RTR
h -t 100.182782285 -s 0 -d 1 -p tcp -e 1060 -c 2 -a 0 -i 38 -k RTR
r -t 100.192738365 -s 1 -d 1 -p tcp -e 1060 -c 2 -a 0 -i 31 -k AGT
+ -t 100.192738365 -s 1 -d -1 -p ack -e 40 -c 2 -a 0 -i 39 -k AGT 
- -t 100.192738365 -s 1 -d -1 -p ack -e 40 -c 2 -a 0 -i 39 -k AGT
h -t 100.192738365 -s 1 -d -1 -p ack -e 40 -c 2 -a 0 -i 39 -k AGT
+ -t 100.192738365 -s 1 -d 0 -p ack -e 60 -c 2 -a 0 -i 39 -k RTR 
- -t 100.192738365 -s 1 -d 0 -p ack -e 60 -c 2 -a 0 -i 39 -k RTR
h -t 100.192738365 -s 1 -d 0 -p ack -e 60 -c 2 -a 0 -i 39 -k RTR
r -t 100.194874447 -s 0 -d 0 -p ack -e 60 -c 2 -a 0 -i 39 -k AGT
+ -t 100.194874447 -s 0 -d -1 -p tcp -e 1040 -c 2 -a 0 -i 40 -k AGT 
- -t 100.194874447 -s 0 -d -1 -p tcp -e 1040 -c 2 -a 0 -i 40 -k AGT
h -t 100.194874447 -s 0 -d -1 -p tcp -e 1040 -c 2 -a 0 -i 40 -k AGT
+ -t 100.194874447 -s 0 -d 1 -p tcp -e 1060 -c 2 -a 0 -i 40 -k RTR 
- -t 100.194874447 -s 0 -d 1 -p tcp -e 1060 -c 2 -a 0 -i 40 -k RTR
h -t 100.194874447 -s 0 -d 1 -p tcp -e 1060 -c 2 -a 0 -i 40 -k RTR
r -t 100.204930528 -s 1 -d 1 -p tcp -e 1060 -c 2 -a 0 -i 32 -k AGT
+ -t 100.204930528 -s 1 -d -1 -p ack -e 40 -c 2 -a 0 -i 41 -k AGT 
- -t 100.204930528 -s 1 -d -1 -p ack -e 40 -c 2 -a 0 -i 41 -k AGT
h -t 100.204930528 -s 1 -d -1 -p ack -e 40 -c 2 -a 0 -i 41 -k AGT
+ -t 100.204930528 -s 1 -d 0 -p ack -e 60 -c 2 -a 0 -i 41 -k RTR 
- -t 100.204930528 -s 1 -d 0 -p ack -e 60 -c 2 -a 0 -i 41 -k RTR
h -t 100.204930528 -s 1 -d 0 -p ack -e 60 -c 2 -a 0 -i 41 -k RTR
r -t 100.206906611 -s 0 -d 0 -p ack -e 60 -c 2 -a 0 -i 41 -k AGT
+ -t 100.206906611 -s 0 -d -1 -p tcp -e 1040 -c 2 -a 0 -i 42 -k AGT 
- -t 100.206906611 -s 0 -d -1 -p tcp -e 1040 -c 2 -a 0 -i 42 -k AGT
h -t 100.206906611 -s 0 -d -1 -p tcp -e 1040 -c 2 -a 0 -i 42 -k AGT
+ -t 100.206906611 -s 0 -d -1 -p tcp -e 1040 -c 2 -a 0 -i 43 -k AGT 
- -t 100.206906611 -s 0 -d -1 -p tcp -e 1040 -c 2 -a 0 -i 43 -k AGT
h -t 100.206906611 -s 0 -d -1 -p tcp -e 1040 -c 2 -a 0 -i 43 -k AGT
+ -t 100.206906611 -s 0 -d 1 -p tcp -e 1060 -c 2 -a 0 -i 42 -k RTR 
- -t 100.206906611 -s 0 -d 1 -p tcp -e 1060 -c 2 -a 0 -i 42 -k RTR
h -t 100.206906611 -s 0 -d 1 -p tcp -e 1060 -c 2 -a 0 -i 42 -k RTR
+ -t 100.206906611 -s 0 -d 1 -p tcp -e 1060 -c 2 -a 0 -i 43 -k RTR 
- -t 100.206906611 -s 0 -d 1 -p tcp -e 1060 -c 2 -a 0 -i 43 -k RTR
h -t 100.206906611 -s 0 -d 1 -p tcp -e 1060 -c 2 -a 0 -i 43 -k RTR
r -t 100.217022695 -s 1 -d 1 -p tcp -e 1060 -c 2 -a 0 -i 34 -k AGT
+ -t 100.217022695 -s 1 -d -1 -p ack -e 40 -c 2 -a 0 -i 44 -k AGT 
- -t 100.217022695 -s 1 -d -1 -p ack -e 40 -c 2 -a 0 -i 44 -k AGT
h -t 100.217022695 -s 1 -d -1 -p ack -e 40 -c 2 -a 0 -i 44 -k AGT
+ -t 100.217022695 -s 1 -d 0 -p ack -e 60 -c 2 -a 0 -i 44 -k RTR 
- -t 100.217022695 -s 1 -d 0 -p ack -e 60 -c 2 -a 0 -i 44 -k RTR
h -t 100.217022695 -s 1 -d 0 -p ack -e 60 -c 2 -a 0 -i 44 -k RTR
r -t 100.226958808 -s 1 -d 1 -p tcp -e 1060 -c 2 -a 0 -i 37 -k AGT
+ -t 100.226958808 -s 1 -d -1 -p ack -e 40 -c 2 -a 0 -i 45 -k AGT 
- -t 100.226958808 -s 1 -d -1 -p ack -e 40 -c 2 -a 0 -i 45 -k AGT
h -t 100.226958808 -s 1 -d -1 -p ack -e 40 -c 2 -a 0 -i 45 -k AGT
+ -t 100.226958808 -s 1 -d 0 -p ack -e 60 -c 2 -a 0 -i 45 -k RTR 
- -t 100.226958808 -s 1 -d 0 -p ack -e 60 -c 2 -a 0 -i 45 -k RTR
h -t 100.226958808 -s 1 -d 0 -p ack -e 60 -c 2 -a 0 -i 45 -k RTR
r -t 100.237134923 -s 1 -d 1 -p tcp -e 1060 -c 2 -a 0 -i 38 -k AGT
+ -t 100.237134923 -s 1 -d -1 -p ack -e 40 -c 2 -a 0 -i 46 -k AGT 
- -t 100.237134923 -s 1 -d -1 -p ack -e 40 -c 2 -a 0 -i 46 -k AGT
h -t 100.237134923 -s 1 -d -1 -p ack -e 40 -c 2 -a 0 -i 46 -k AGT
+ -t 100.237134923 -s 1 -d 0 -p ack -e 60 -c 2 -a 0 -i 46 -k RTR 
- -t 100.237134923 -s 1 -d 0 -p ack -e 60 -c 2 -a 0 -i 46 -k RTR
h -t 100.237134923 -s 1 -d 0 -p ack -e 60 -c 2 -a 0 -i 46 -k RTR
r -t 100.239131011 -s 0 -d 0 -p ack -e 60 -c 2 -a 0 -i 44 -k AGT
+ -t 100.239131011 -s 0 -d -1 -p tcp -e 1040 -c 2 -a 0 -i 47 -k AGT 
- -t 100.239131011 -s 0 -d -1 -p tcp -e 1040 -c 2 -a 0 -i 47 -k AGT
h -t 100.239131011 -s 0 -d -1 -p tcp -e 1040 -c 2 -a 0 -i 47 -k AGT
+ -t 100.239131011 -s 0 -d 1 -p tcp -e 1060 -c 2 -a 0 -i 47 -k RTR 
- -t 100.239131011 -s 0 -d 1 -p tcp -e 1060 -c 2 -a 0 -i 47 -k RTR
h -t 100.239131011 -s 0 -d 1 -p tcp -e 1060 -c 2 -a 0 -i 47 -k RTR
r -t 100.249307099 -s 1 -d 1 -p tcp -e 1060 -c 2 -a 0 -i 40 -k AGT
+ -t 100.249307099 -s 1 -d -1 -p ack -e 40 -c 2 -a 0 -i 48 -k AGT 
- -t 100.249307099 -s 1 -d -1 -p ack -e 40 -c 2 -a 0 -i 48 -k AGT
h -t 100.249307099 -s 1 -d -1 -p ack -e 40 -c 2 -a 0 -i 48 -k AGT
+ -t 100.249307099 -s 1 -d 0 -p ack -e 60 -c 2 -a 0 -i 48 -k RTR 
- -t 100.249307099 -s 1 -d 0 -p ack -e 60 -c 2 -a 0 -i 48 -k RTR
h -t 100.249307099 -s 1 -d 0 -p ack -e 60 -c 2 -a 0 -i 48 -k RTR
r -t 100.259263219 -s 1 -d 1 -p tcp -e 1060 -c 2 -a 0 -i 42 -k AGT
+ -t 100.259263219 -s 1 -d -1 -p ack -e 40 -c 2 -a 0 -i 49 -k AGT 
- -t 100.259263219 -s 1 -d -1 -p ack -e 40 -c 2 -a 0 -i 49 -k AGT
h -t 100.259263219 -s 1 -d -1 -p ack -e 40 -c 2 -a 0 -i 49 -k AGT
+ -t 100.259263219 -s 1 -d 0 -p ack -e 60 -c 2 -a 0 -i 49 -k RTR 
- -t 100.259263219 -s 1 -d 0 -p ack -e 60 -c 2 -a 0 -i 49 -k RTR
h -t 100.259263219 -s 1 -d 0 -p ack -e 60 -c 2 -a 0 -i 49 -k RTR
r -t 100.261219310 -s 0 -d 0 -p ack -e 60 -c 2 -a 0 -i 45 -k AGT
+ -t 100.261219310 -s 0 -d -1 -p tcp -e 1040 -c 2 -a 0 -i 50 -k AGT 
- -t 100.261219310 -s 0 -d -1 -p tcp -e 1040 -c 2 -a 0 -i 50 -k AGT
h -t 100.261219310 -s 0 -d -1 -p tcp -e 1040 -c 2 -a 0 -i 50 -k AGT
+ -t 100.261219310 -s 0 -d 1 -p tcp -e 1060 -c 2 -a 0 -i 50 -k RTR 
- -t 100.261219310 -s 0 -d 1 -p tcp -e 1060 -c 2 -a 0 -i 50 -k RTR
h -t 100.261219310 -s 0 -d 1 -p tcp -e 1060 -c 2 -a 0 -i 50 -k RTR
r -t 100.263395431 -s 0 -d 0 -p ack -e 60 -c 2 -a 0 -i 46 -k AGT
+ -t 100.263395431 -s 0 -d -1 -p tcp -e 1040 -c 2 -a 0 -i 51 -k AGT 
- -t 100.263395431 -s 0 -d -1 -p tcp -e 1040 -c 2 -a 0 -i 51 -k AGT
h -t 100.263395431 -s 0 -d -1 -p tcp -e 1040 -c 2 -a 0 -i 51 -k AGT
+ -t 100.263395431 -s 0 -d 1 -p tcp -e 1060 -c 2 -a 0 -i 51 -k RTR 
- -t 100.263395431 -s 0 -d 1 -p tcp -e 1060 -c 2 -a 0 -i 51 -k RTR
h -t 100.263395431 -s 0 -d 1 -p tcp -e 1060 -c 2 -a 0 -i 51 -k RTR
r -t 100.265451554 -s 0 -d 0 -p ack -e 60 -c 2 -a 0 -i 48 -k AGT
+ -t 100.265451554 -s 0 -d -1 -p tcp -e 1040 -c 2 -a 0 -i 52 -k AGT 
- -t 100.265451554 -s 0 -d -1 -p tcp -e 1040 -c 2 -a 0 -i 52 -k AGT
h -t 100.265451554 -s 0 -d -1 -p tcp -e 1040 -c 2 -a 0 -i 52 -k AGT
+ -t 100.265451554 -s 0 -d 1 -p tcp -e 1060 -c 2 -a 0 -i 52 -k RTR 
- -t 100.265451554 -s 0 -d 1 -p tcp -e 1060 -c 2 -a 0 -i 52 -k RTR
h -t 100.265451554 -s 0 -d 1 -p tcp -e 1060 -c 2 -a 0 -i 52 -k RTR
r -t 100.275487646 -s 1 -d 1 -p tcp -e 1060 -c 2 -a 0 -i 43 -k AGT
+ -t 100.275487646 -s 1 -d -1 -p ack -e 40 -c 2 -a 0 -i 53 -k AGT 
- -t 100.275487646 -s 1 -d -1 -p ack -e 40 -c 2 -a 0 -i 53 -k AGT
h -t 100.275487646 -s 1 -d -1 -p ack -e 40 -c 2 -a 0 -i 53 -k AGT
+ -t 100.275487646 -s 1 -d 0 -p ack -e 60 -c 2 -a 0 -i 53 -k RTR 
- -t 100.275487646 -s 1 -d 0 -p ack -e 60 -c 2 -a 0 -i 53 -k RTR
h -t 100.275487646 -s 1 -d 0 -p ack -e 60 -c 2 -a 0 -i 53 -k RTR
r -t 100.285463770 -s 1 -d 1 -p tcp -e 1060 -c 2 -a 0 -i 47 -k AGT
+ -t 100.285463770 -s 1 -d -1 -p ack -e 40 -c 2 -a 0 -i 54 -k AGT 
- -t 100.285463770 -s 1 -d -1 -p ack -e 40 -c 2 -a 0 -i 54 -k AGT
h -t 100.285463770 -s 1 -d -1 -p ack -e 40 -c 2 -a 0 -i 54 -k AGT
+ -t 100.285463770 -s 1 -d 0 -p ack -e 60 -c 2 -a 0 -i 54 -k RTR 
- -t 100.285463770 -s 1 -d 0 -p ack -e 60 -c 2 -a 0 -i 54 -k RTR
h -t 100.285463770 -s 1 -d 0 -p ack -e 60 -c 2 -a 0 -i 54 -k RTR
r -t 100.287559865 -s 0 -d 0 -p ack -e 60 -c 2 -a 0 -i 49 -k AGT
+ -t 100.287559865 -s 0 -d -1 -p tcp -e 1040 -c 2 -a 0 -i 55 -k AGT 
- -t 100.287559865 -s 0 -d -1 -p tcp -e 1040 -c 2 -a 0 -i 55 -k AGT
h -t 100.287559865 -s 0 -d -1 -p tcp -e 1040 -c 2 -a 0 -i 55 -k AGT
+ -t 100.287559865 -s 0 -d 1 -p tcp -e 1060 -c 2 -a 0 -i 55 -k RTR 
- -t 100.287559865 -s 0 -d 1 -p tcp -e 1060 -c 2 -a 0 -i 55 -k RTR
h -t 100.287559865 -s 0 -d 1 -p tcp -e 1060 -c 2 -a 0 -i 55 -k RTR
r -t 100.289615992 -s 0 -d 0 -p ack -e 60 -c 2 -a 0 -i 53 -k AGT
+ -t 100.289615992 -s 0 -d -1 -p tcp -e 1040 -c 2 -a 0 -i 56 -k AGT 
- -t 100.289615992 -s 0 -d -1 -p tcp -e 1040 -c 2 -a 0 -i 56 -k AGT
h -t 100.289615992 -s 0 -d -1 -p tcp -e 1040 -c 2 -a 0 -i 56 -k AGT
+ -t 100.289615992 -s 0 -d -1 -p tcp -e 1040 -c 2 -a 0 -i 57 -k AGT 
- -t 100.289615992 -s 0 -d -1 -p tcp -e 1040 -c 2 -a 0 -i 57 -k AGT
h -t 100.289615992 -s 0 -d -1 -p tcp -e 1040 -c 2 -a 0 -i 57 -k AGT
+ -t 100.289615992 -s 0 -d 1 -p tcp -e 1060 -c 2 -a 0 -i 56 -k RTR 
- -t 100.289615992 -s 0 -d 1 -p tcp -e 1060 -c 2 -a 0 -i 56 -k RTR
h -t 100.289615992 -s 0 -d 1 -p tcp -e 1060 -c 2 -a 0 -i 56 -k RTR
+ -t 100.289615992 -s 0 -d 1 -p tcp -e 1060 -c 2 -a 0 -i 57 -k RTR 
- -t 100.289615992 -s 0 -d 1 -p tcp -e 1060 -c 2 -a 0 -i 57 -k RTR
h -t 100.289615992 -s 0 -d 1 -p tcp -e 1060 -c 2 -a 0 -i 57 -k RTR
r -t 100.299732087 -s 1 -d 1 -p tcp -e 1060 -c 2 -a 0 -i 50 -k AGT
+ -t 100.299732087 -s 1 -d -1 -p ack -e 40 -c 2 -a 0 -i 58 -k AGT 
- -t 100.299732087 -s 1 -d -1 -p ack -e 40 -c 2 -a 0 -i 58 -k AGT
h -t 100.299732087 -s 1 -d -1 -p ack -e 40 -c 2 -a 0 -i 58 -k AGT
+ -t 100.299732087 -s 1 -d 0 -p ack -e 60 -c 2 -a 0 -i 58 -k RTR 
- -t 100.299732087 -s 1 -d 0 -p ack -e 60 -c 2 -a 0 -i 58 -k RTR
h -t 100.299732087 -s 1 -d 0 -p ack -e 60 -c 2 -a 0 -i 58 -k RTR
r -t 100.301688184 -s 0 -d 0 -p ack -e 60 -c 2 -a 0 -i 54 -k AGT
+ -t 100.301688184 -s 0 -d -1 -p tcp -e 1040 -c 2 -a 0 -i 59 -k AGT 
- -t 100.301688184 -s 0 -d -1 -p tcp -e 1040 -c 2 -a 0 -i 59 -k AGT
h -t 100.301688184 -s 0 -d -1 -p tcp -e 1040 -c 2 -a 0 -i 59 -k AGT
+ -t 100.301688184 -s 0 -d 1 -p tcp -e 1060 -c 2 -a 0 -i 59 -k RTR 
- -t 100.301688184 -s 0 -d 1 -p tcp -e 1060 -c 2 -a 0 -i 59 -k RTR
h -t 100.301688184 -s 0 -d 1 -p tcp -e 1060 -c 2 -a 0 -i 59 -k RTR
r -t 100.312550346 -s 1 -d 1 -p tcp -e 1060 -c 2 -a 0 -i 51 -k AGT
+ -t 100.312550346 -s 1 -d -1 -p ack -e 40 -c 2 -a 0 -i 60 -k AGT 
- -t 100.312550346 -s 1 -d -1 -p ack -e 40 -c 2 -a 0 -i 60 -k AGT
h -t 100.312550346 -s 1 -d -1 -p ack -e 40 -c 2 -a 0 -i 60 -k AGT
+ -t 100.312550346 -s 1 -d 0 -p ack -e 60 -c 2 -a 0 -i 60 -k RTR 
- -t 100.312550346 -s 1 -d 0 -p ack -e 60 -c 2 -a 0 -i 60 -k RTR
h -t 100.312550346 -s 1 -d 0 -p ack -e 60 -c 2 -a 0 -i 60 -k RTR
r -t 100.322546478 -s 1 -d 1 -p tcp -e 1060 -c 2 -a 0 -i 52 -k AGT
+ -t 100.322546478 -s 1 -d -1 -p ack -e 40 -c 2 -a 0 -i 61 -k AGT 
- -t 100.322546478 -s 1 -d -1 -p ack -e 40 -c 2 -a 0 -i 61 -k AGT
h -t 100.322546478 -s 1 -d -1 -p ack -e 40 -c 2 -a 0 -i 61 -k AGT
+ -t 100.322546478 -s 1 -d 0 -p ack -e 60 -c 2 -a 0 -i 61 -k RTR 
- -t 100.322546478 -s 1 -d 0 -p ack -e 60 -c 2 -a 0 -i 61 -k RTR