M 10.00000 0 (5.00, 2.00, 0.00), (20.00, 18.00), 1.00
s 10.000000000 _0_ AGT  --- 0 tcp 40 [0 0 0 0] ------- [0:0 1:0 32 0] [0 0] 0 0
r 10.000000000 _0_ RTR  --- 0 tcp 40 [0 0 0 0] ------- [0:0 1:0 32 0] [0 0] 0 0
s 10.000000000 _0_ RTR  --- 0 AODV 48 [0 0 0 0] ------- [0:255 -1:255 30 0] [0x2 1 1 [1 0] [0 4]] (REQUEST)
s 12.000000000 _0_ RTR  --- 0 AODV 48 [0 0 0 0] ------- [0:255 -1:255 30 0] [0x2 1 2 [1 0] [0 6]] (REQUEST)
s 16.000000000 _0_ AGT  --- 1 tcp 40 [0 0 0 0] ------- [0:0 1:0 32 0] [0 0] 0 0
r 16.000000000 _0_ RTR  --- 1 tcp 40 [0 0 0 0] ------- [0:0 1:0 32 0] [0 0] 0 0
s 16.000000000 _0_ RTR  --- 0 AODV 48 [0 0 0 0] ------- [0:255 -1:255 30 0] [0x2 1 3 [1 0] [0 8]] (REQUEST)
s 21.500000000 _0_ RTR  --- 0 AODV 48 [0 0 0 0] ------- [0:255 -1:255 30 0] [0x2 1 4 [1 0] [0 10]] (REQUEST)
s 28.000000000 _0_ AGT  --- 2 tcp 40 [0 0 0 0] ------- [0:0 1:0 32 0] [0 0] 0 0
r 28.000000000 _0_ RTR  --- 2 tcp 40 [0 0 0 0] ------- [0:0 1:0 32 0] [0 0] 0 0
D 29.000000000 _0_ RTR NRTE 0 tcp 60 [0 0 0 0] ------- [0:0 1:0 30 0] [0 0] 0 0
D 29.000000000 _0_ RTR NRTE 1 tcp 60 [0 0 0 0] ------- [0:0 1:0 30 0] [0 0] 0 0
D 29.000000000 _0_ RTR NRTE 2 tcp 60 [0 0 0 0] ------- [0:0 1:0 30 0] [0 0] 0 0
M 50.00000 1 (390.00, 385.00, 0.00), (25.00, 20.00), 15.00
s 52.000000000 _0_ AGT  --- 3 tcp 40 [0 0 0 0] ------- [0:0 1:0 32 0] [0 0] 0 0
r 52.000000000 _0_ RTR  --- 3 tcp 40 [0 0 0 0] ------- [0:0 1:0 32 0] [0 0] 0 0
s 52.000000000 _0_ RTR  --- 0 AODV 48 [0 0 0 0] ------- [0:255 -1:255 30 0] [0x2 1 5 [1 0] [0 12]] (REQUEST)
s 54.000000000 _0_ RTR  --- 0 AODV 48 [0 0 0 0] ------- [0:255 -1:255 30 0] [0x2 1 6 [1 0] [0 14]] (REQUEST)
s 58.000000000 _0_ RTR  --- 0 AODV 48 [0 0 0 0] ------- [0:255 -1:255 30 0] [0x2 1 7 [1 0] [0 16]] (REQUEST)
s 63.500000000 _0_ RTR  --- 0 AODV 48 [0 0 0 0] ------- [0:255 -1:255 30 0] [0x2 1 8 [1 0] [0 18]] (REQUEST)
D 71.000000000 _0_ RTR NRTE 3 tcp 60 [0 0 0 0] ------- [0:0 1:0 30 0] [0 0] 0 0
M 100.00000 1 (25.00, 20.00, 0.00), (490.00, 480.00), 15.00
s 100.000000000 _0_ AGT  --- 4 tcp 40 [0 0 0 0] ------- [0:0 1:0 32 0] [0 0] 0 0
r 100.000000000 _0_ RTR  --- 4 tcp 40 [0 0 0 0] ------- [0:0 1:0 32 0] [0 0] 0 0
s 100.000000000 _0_ RTR  --- 0 AODV 48 [0 0 0 0] ------- [0:255 -1:255 30 0] [0x2 1 9 [1 0] [0 20]] (REQUEST)
r 100.000900018 _1_ RTR  --- 0 AODV 48 [0 ffffffff 0 800] ------- [0:255 -1:255 30 0] [0x2 1 9 [1 0] [0 20]] (REQUEST)
s 100.000900018 _1_ RTR  --- 0 AODV 44 [0 0 0 0] ------- [1:255 0:255 30 0] [0x4 1 [1 2] 10.000000] (REPLY)
r 100.005134145 _0_ RTR  --- 0 AODV 44 [13a 0 1 800] ------- [1:255 0:255 30 0] [0x4 1 [1 2] 10.000000] (REPLY)
s 100.005134145 _0_ RTR  --- 4 tcp 60 [0 0 0 0] ------- [0:0 1:0 30 1] [0 0] 0 0
r 100.007310199 _1_ AGT  --- 4 tcp 60 [13a 1 0 800] ------- [0:0 1:0 30 1] [0 0] 1 0
s 100.007310199 _1_ AGT  --- 5 ack 40 [0 0 0 0] ------- [1:0 0:0 32 0] [0 0] 0 0
r 100.007310199 _1_ RTR  --- 5 ack 40 [0 0 0 0] ------- [1:0 0:0 32 0] [0 0] 0 0
s 100.007310199 _1_ RTR  --- 5 ack 60 [0 0 0 0] ------- [1:0 0:0 30 0] [0 0] 0 0
r 100.009786254 _0_ AGT  --- 5 ack 60 [13a 0 1 800] ------- [1:0 0:0 30 0] [0 0] 1 0
s 100.009786254 _0_ AGT  --- 6 tcp 1040 [0 0 0 0] ------- [0:0 1:0 32 0] [1 0] 0 0
r 100.009786254 _0_ RTR  --- 6 tcp 1040 [0 0 0 0] ------- [0:0 1:0 32 0] [1 0] 0 0
s 100.009786254 _0_ AGT  --- 7 tcp 1040 [0 0 0 0] ------- [0:0 1:0 32 0] [2 0] 0 0
r 100.009786254 _0_ RTR  --- 7 tcp 1040 [0 0 0 0] ------- [0:0 1:0 32 0] [2 0] 0 0
s 100.009786254 _0_ RTR  --- 6 tcp 1060 [0 0 0 0] ------- [0:0 1:0 30 1] [1 0] 0 0
s 100.009786254 _0_ RTR  --- 7 tcp 1060 [0 0 0 0] ------- [0:0 1:0 30 1] [2 0] 0 0
r 100.020082310 _1_ AGT  --- 6 tcp 1060 [13a 1 0 800] ------- [0:0 1:0 30 1] [1 0] 1 0
s 100.020082310 _1_ AGT  --- 8 ack 40 [0 0 0 0] ------- [1:0 0:0 32 0] [1 0] 0 0
r 100.020082310 _1_ RTR  --- 8 ack 40 [0 0 0 0] ------- [1:0 0:0 32 0] [1 0] 0 0
s 100.020082310 _1_ RTR  --- 8 ack 60 [0 0 0 0] ------- [1:0 0:0 30 0] [1 0] 0 0
r 100.022178366 _0_ AGT  --- 8 ack 60 [13a 0 1 800] ------- [1:0 0:0 30 0] [1 0] 1 0
s 100.022178366 _0_ AGT  --- 9 tcp 1040 [0 0 0 0] ------- [0:0 1:0 32 0] [3 0] 0 0
r 100.022178366 _0_ RTR  --- 9 tcp 1040 [0 0 0 0] ------- [0:0 1:0 32 0] [3 0] 0 0
s 100.022178366 _0_ RTR  --- 9 tcp 1060 [0 0 0 0] ------- [0:0 1:0 30 1] [3 0] 0 0
r 100.032434423 _1_ AGT  --- 7 tcp 1060 [13a 1 0 800] ------- [0:0 1:0 30 1] [2 0] 1 0
s 100.032434423 _1_ AGT  --- 10 ack 40 [0 0 0 0] ------- [1:0 0:0 32 0] [2 0] 0 0
r 100.032434423 _1_ RTR  --- 10 ack 40 [0 0 0 0] ------- [1:0 0:0 32 0] [2 0] 0 0
s 100.032434423 _1_ RTR  --- 10 ack 60 [0 0 0 0] ------- [1:0 0:0 30 0] [2 0] 0 0
r 100.034390482 _0_ AGT  --- 10 ack 60 [13a 0 1 800] ------- [1:0 0:0 30 0] [2 0] 1 0
s 100.034390482 _0_ AGT  --- 11 tcp 1040 [0 0 0 0] ------- [0:0 1:0 32 0] [4 0] 0 0
r 100.034390482 _0_ RTR  --- 11 tcp 1040 [0 0 0 0] ------- [0:0 1:0 32 0] [4 0] 0 0
s 100.034390482 _0_ RTR  --- 11 tcp 1060 [0 0 0 0] ------- [0:0 1:0 30 1] [4 0] 0 0
r 100.044626541 _1_ AGT  --- 9 tcp 1060 [13a 1 0 800] ------- [0:0 1:0 30 1] [3 0] 1 0
s 100.044626541 _1_ AGT  --- 12 ack 40 [0 0 0 0] ------- [1:0 0:0 32 0] [3 0] 0 0
r 100.044626541 _1_ RTR  --- 12 ack 40 [0 0 0 0] ------- [1:0 0:0 32 0] [3 0] 0 0
s 100.044626541 _1_ RTR  --- 12 ack 60 [0 0 0 0] ------- [1:0 0:0 30 0] [3 0] 0 0
r 100.054582621 _1_ AGT  --- 11 tcp 1060 [13a 1 0 800] ------- [0:0 1:0 30 1] [4 0] 1 0
s 100.054582621 _1_ AGT  --- 13 ack 40 [0 0 0 0] ------- [1:0 0:0 32 0] [4 0] 0 0
r 100.054582621 _1_ RTR  --- 13 ack 40 [0 0 0 0] ------- [1:0 0:0 32 0] [4 0] 0 0
s 100.054582621 _1_ RTR  --- 13 ack 60 [0 0 0 0] ------- [1:0 0:0 30 0] [4 0] 0 0
r 100.056718682 _0_ AGT  --- 12 ack 60 [13a 0 1 800] ------- [1:0 0:0 30 0] [3 0] 1 0
s 100.056718682 _0_ AGT  --- 14 tcp 1040 [0 0 0 0] ------- [0:0 1:0 32 0] [5 0] 0 0
r 100.056718682 _0_ RTR  --- 14 tcp 1040 [0 0 0 0] ------- [0:0 1:0 32 0] [5 0] 0 0
s 100.056718682 _0_ AGT  --- 15 tcp 1040 [0 0 0 0] ------- [0:0 1:0 32 0] [6 0] 0 0
r 100.056718682 _0_ RTR  --- 15 tcp 1040 [0 0 0 0] ------- [0:0 1:0 32 0] [6 0] 0 0
s 100.056718682 _0_ RTR  --- 14 tcp 1060 [0 0 0 0] ------- [0:0 1:0 30 1] [5 0] 0 0
s 100.056718682 _0_ RTR  --- 15 tcp 1060 [0 0 0 0] ------- [0:0 1:0 30 1] [6 0] 0 0
r 100.066694744 _1_ AGT  --- 14 tcp 1060 [13a 1 0 800] ------- [0:0 1:0 30 1] [5 0] 1 0
s 100.066694744 _1_ AGT  --- 16 ack 40 [0 0 0 0] ------- [1:0 0:0 32 0] [5 0] 0 0
r 100.066694744 _1_ RTR  --- 16 ack 40 [0 0 0 0] ------- [1:0 0:0 32 0] [5 0] 0 0
s 100.066694744 _1_ RTR  --- 16 ack 60 [0 0 0 0] ------- [1:0 0:0 30 0] [5 0] 0 0
r 100.076810829 _1_ AGT  --- 15 tcp 1060 [13a 1 0 800] ------- [0:0 1:0 30 1] [6 0] 1 0
s 100.076810829 _1_ AGT  --- 17 ack 40 [0 0 0 0] ------- [1:0 0:0 32 0] [6 0] 0 0
r 100.076810829 _1_ RTR  --- 17 ack 40 [0 0 0 0] ------- [1:0 0:0 32 0] [6 0] 0 0
s 100.076810829 _1_ RTR  --- 17 ack 60 [0 0 0 0] ------- [1:0 0:0 30 0] [6 0] 0 0
r 100.078966893 _0_ AGT  --- 13 ack 60 [13a 0 1 800] ------- [1:0 0:0 30 0] [4 0] 1 0
s 100.078966893 _0_ AGT  --- 18 tcp 1040 [0 0 0 0] ------- [0:0 1:0 32 0] [7 0] 0 0
r 100.078966893 _0_ RTR  --- 18 tcp 1040 [0 0 0 0] ------- [0:0 1:0 32 0] [7 0] 0 0
s 100.078966893 _0_ RTR  --- 18 tcp 1060 [0 0 0 0] ------- [0:0 1:0 30 1] [7 0] 0 0
r 100.089262959 _1_ AGT  --- 18 tcp 1060 [13a 1 0 800] ------- [0:0 1:0 30 1] [7 0] 1 0
s 100.089262959 _1_ AGT  --- 19 ack 40 [0 0 0 0] ------- [1:0 0:0 32 0] [7 0] 0 0
r 100.089262959 _1_ RTR  --- 19 ack 40 [0 0 0 0] ------- [1:0 0:0 32 0] [7 0] 0 0
s 100.089262959 _1_ RTR  --- 19 ack 60 [0 0 0 0] ------- [1:0 0:0 30 0] [7 0] 0 0
r 100.091239025 _0_ AGT  --- 16 ack 60 [13a 0 1 800] ------- [1:0 0:0 30 0] [5 0] 1 0
s 100.091239025 _0_ AGT  --- 20 tcp 1040 [0 0 0 0] ------- [0:0 1:0 32 0] [8 0] 0 0
r 100.091239025 _0_ RTR  --- 20 tcp 1040 [0 0 0 0] ------- [0:0 1:0 32 0] [8 0] 0 0
s 100.091239025 _0_ RTR  --- 20 tcp 1060 [0 0 0 0] ------- [0:0 1:0 30 1] [8 0] 0 0
r 100.093535114 _0_ AGT  --- 17 ack 60 [13a 0 1 800] ------- [1:0 0:0 30 0] [6 0] 1 0
s 100.093535114 _0_ AGT  --- 21 tcp 1040 [0 0 0 0] ------- [0:0 1:0 32 0] [9 0] 0 0
r 100.093535114 _0_ RTR  --- 21 tcp 1040 [0 0 0 0] ------- [0:0 1:0 32 0] [9 0] 0 0
s 100.093535114 _0_ AGT  --- 22 tcp 1040 [0 0 0 0] ------- [0:0 1:0 32 0] [10 0] 0 0
r 100.093535114 _0_ RTR  --- 22 tcp 1040 [0 0 0 0] ------- [0:0 1:0 32 0] [10 0] 0 0
s 100.093535114 _0_ RTR  --- 21 tcp 1060 [0 0 0 0] ------- [0:0 1:0 30 1] [9 0] 0 0
s 100.093535114 _0_ RTR  --- 22 tcp 1060 [0 0 0 0] ------- [0:0 1:0 30 1] [10 0] 0 0
r 100.095511204 _0_ AGT  --- 19 ack 60 [13a 0 1 800] ------- [1:0 0:0 30 0] [7 0] 1 0
s 100.095511204 _0_ AGT  --- 23 tcp 1040 [0 0 0 0] ------- [0:0 1:0 32 0] [11 0] 0 0
r 100.095511204 _0_ RTR  --- 23 tcp 1040 [0 0 0 0] ------- [0:0 1:0 32 0] [11 0] 0 0
s 100.095511204 _0_ RTR  --- 23 tcp 1060 [0 0 0 0] ------- [0:0 1:0 30 1] [11 0] 0 0
r 100.105547271 _1_ AGT  --- 20 tcp 1060 [13a 1 0 800] ------- [0:0 1:0 30 1] [8 0] 1 0
s 100.105547271 _1_ AGT  --- 24 ack 40 [0 0 0 0] ------- [1:0 0:0 32 0] [8 0] 0 0
r 100.105547271 _1_ RTR  --- 24 ack 40 [0 0 0 0] ------- [1:0 0:0 32 0] [8 0] 0 0
s 100.105547271 _1_ RTR  --- 24 ack 60 [0 0 0 0] ------- [1:0 0:0 30 0] [8 0] 0 0
r 100.107683340 _0_ AGT  --- 24 ack 60 [13a 0 1 800] ------- [1:0 0:0 30 0] [8 0] 1 0
s 100.107683340 _0_ AGT  --- 25 tcp 1040 [0 0 0 0] ------- [0:0 1:0 32 0] [12 0] 0 0
r 100.107683340 _0_ RTR  --- 25 tcp 1040 [0 0 0 0] ------- [0:0 1:0 32 0] [12 0] 0 0
s 100.107683340 _0_ RTR  --- 25 tcp 1060 [0 0 0 0] ------- [0:0 1:0 30 1] [12 0] 0 0
r 100.117779409 _1_ AGT  --- 21 tcp 1060 [13a 1 0 800] ------- [0:0 1:0 30 1] [9 0] 1 0
s 100.117779409 _1_ AGT  --- 26 ack 40 [0 0 0 0] ------- [1:0 0:0 32 0] [9 0] 0 0
r 100.117779409 _1_ RTR  --- 26 ack 40 [0 0 0 0] ------- [1:0 0:0 32 0] [9 0] 0 0
s 100.117779409 _1_ RTR  --- 26 ack 60 [0 0 0 0] ------- [1:0 0:0 30 0] [9 0] 0 0
r 100.119795479 _0_ AGT  --- 26 ack 60 [13a 0 1 800] ------- [1:0 0:0 30 0] [9 0] 1 0
s 100.119795479 _0_ AGT  --- 27 tcp 1040 [0 0 0 0] ------- [0:0 1:0 32 0] [13 0] 0 0
r 100.119795479 _0_ RTR  --- 27 tcp 1040 [0 0 0 0] ------- [0:0 1:0 32 0] [13 0] 0 0
s 100.119795479 _0_ RTR  --- 27 tcp 1060 [0 0 0 0] ------- [0:0 1:0 30 1] [13 0] 0 0
r 100.129931550 _1_ AGT  --- 22 tcp 1060 [13a 1 0 800] ------- [0:0 1:0 30 1] [10 0] 1 0
s 100.129931550 _1_ AGT  --- 28 ack 40 [0 0 0 0] ------- [1:0 0:0 32 0] [10 0] 0 0
r 100.129931550 _1_ RTR  --- 28 ack 40 [0 0 0 0] ------- [1:0 0:0 32 0] [10 0] 0 0
s 100.129931550 _1_ RTR  --- 28 ack 60 [0 0 0 0] ------- [1:0 0:0 30 0] [10 0] 0 0
r 100.131967623 _0_ AGT  --- 28 ack 60 [13a 0 1 800] ------- [1:0 0:0 30 0] [10 0] 1 0
s 100.131967623 _0_ AGT  --- 29 tcp 1040 [0 0 0 0] ------- [0:0 1:0 32 0] [14 0] 0 0
r 100.131967623 _0_ RTR  --- 29 tcp 1040 [0 0 0 0] ------- [0:0 1:0 32 0] [14 0] 0 0
s 100.131967623 _0_ RTR  --- 29 tcp 1060 [0 0 0 0] ------- [0:0 1:0 30 1] [14 0] 0 0
r 100.142323695 _1_ AGT  --- 23 tcp 1060 [13a 1 0 800] ------- [0:0 1:0 30 1] [11 0] 1 0
s 100.142323695 _1_ AGT  --- 30 ack 40 [0 0 0 0] ------- [1:0 0:0 32 0] [11 0] 0 0
r 100.142323695 _1_ RTR  --- 30 ack 40 [0 0 0 0] ------- [1:0 0:0 32 0] [11 0] 0 0
s 100.142323695 _1_ RTR  --- 30 ack 60 [0 0 0 0] ------- [1:0 0:0 30 0] [11 0] 0 0
r 100.144459769 _0_ AGT  --- 30 ack 60 [13a 0 1 800] ------- [1:0 0:0 30 0] [11 0] 1 0
s 100.144459769 _0_ AGT  --- 31 tcp 1040 [0 0 0 0] ------- [0:0 1:0 32 0] [15 0] 0 0
r 100.144459769 _0_ RTR  --- 31 tcp 1040 [0 0 0 0] ------- [0:0 1:0 32 0] [15 0] 0 0
s 100.144459769 _0_ AGT  --- 32 tcp 1040 [0 0 0 0] ------- [0:0 1:0 32 0] [16 0] 0 0
r 100.144459769 _0_ RTR  --- 32 tcp 1040 [0 0 0 0] ------- [0:0 1:0 32 0] [16 0] 0 0
s 100.144459769 _0_ RTR  --- 31 tcp 1060 [0 0 0 0] ------- [0:0 1:0 30 1] [15 0] 0 0
s 100.144459769 _0_ RTR  --- 32 tcp 1060 [0 0 0 0] ------- [0:0 1:0 30 1] [16 0] 0 0
r 100.154775844 _1_ AGT  --- 25 tcp 1060 [13a 1 0 800] ------- [0:0 1:0 30 1] [12 0] 1 0
s 100.154775844 _1_ AGT  --- 33 ack 40 [0 0 0 0] ------- [1:0 0:0 32 0] [12 0] 0 0
r 100.154775844 _1_ RTR  --- 33 ack 40 [0 0 0 0] ------- [1:0 0:0 32 0] [12 0] 0 0
s 100.154775844 _1_ RTR  --- 33 ack 60 [0 0 0 0] ------- [1:0 0:0 30 0] [12 0] 0 0
r 100.156831920 _0_ AGT  --- 33 ack 60 [13a 0 1 800] ------- [1:0 0:0 30 0] [12 0] 1 0
s 100.156831920 _0_ AGT  --- 34 tcp 1040 [0 0 0 0] ------- [0:0 1:0 32 0] [17 0] 0 0
r 100.156831920 _0_ RTR  --- 34 tcp 1040 [0 0 0 0] ------- [0:0 1:0 32 0] [17 0] 0 0
s 100.156831920 _0_ RTR  --- 34 tcp 1060 [0 0 0 0] ------- [0:0 1:0 30 1] [17 0] 0 0
r 100.166987996 _1_ AGT  --- 27 tcp 1060 [13a 1 0 800] ------- [0:0 1:0 30 1] [13 0] 1 0
s 100.166987996 _1_ AGT  --- 35 ack 40 [0 0 0 0] ------- [1:0 0:0 32 0] [13 0] 0 0
r 100.166987996 _1_ RTR  --- 35 ack 40 [0 0 0 0] ------- [1:0 0:0 32 0] [13 0] 0 0
s 100.166987996 _1_ RTR  --- 35 ack 60 [0 0 0 0] ------- [1:0 0:0 30 0] [13 0] 0 0
r 100.178450100 _1_ AGT  --- 29 tcp 1060 [13a 1 0 800] ------- [0:0 1:0 30 1] [14 0] 1 0
s 100.178450100 _1_ AGT  --- 36 ack 40 [0 0 0 0] ------- [1:0 0:0 32 0] [14 0] 0 0
r 100.178450100 _1_ RTR  --- 36 ack 40 [0 0 0 0] ------- [1:0 0:0 32 0] [14 0] 0 0
s 100.178450100 _1_ RTR  --- 36 ack 60 [0 0 0 0] ------- [1:0 0:0 30 0] [14 0] 0 0
r 100.180846179 _0_ AGT  --- 35 ack 60 [13a 0 1 800] ------- [1:0 0:0 30 0] [13 0] 1 0
s 100.180846179 _0_ AGT  --- 37 tcp 1040 [0 0 0 0] ------- [0:0 1:0 32 0] [18 0] 0 0
r 100.180846179 _0_ RTR  --- 37 tcp 1040 [0 0 0 0] ------- [0:0 1:0 32 0] [18 0] 0 0
s 100.180846179 _0_ RTR  --- 37 tcp 1060 [0 0 0 0] ------- [0:0 1:0 30 1] [18 0] 0 0
r 100.182782285 _0_ AGT  --- 36 ack 60 [13a 0 1 800] ------- [1:0 0:0 30 0] [14 0] 1 0
s 100.182782285 _0_ AGT  --- 38 tcp 1040 [0 0 0 0] ------- [0:0 1:0 32 0] [19 0] 0 0
r 100.182782285 _0_ RTR  --- 38 tcp 1040 [0 0 0 0] ------- [0:0 1:0 32 0] [19 0] 0 0
s 100.182782285 _0_ RTR  --- 38 tcp 1060 [0 0 0 0] ------- [0:0 1:0 30 1] [19 0] 0 0
r 100.192738365 _1_ AGT  --- 31 tcp 1060 [13a 1 0 800] ------- [0:0 1:0 30 1] [15 0] 1 0
s 100.192738365 _1_ AGT  --- 39 ack 40 [0 0 0 0] ------- [1:0 0:0 32 0] [15 0] 0 0
r 100.192738365 _1_ RTR  --- 39 ack 40 [0 0 0 0] ------- [1:0 0:0 32 0] [15 0] 0 0
s 100.192738365 _1_ RTR  --- 39 ack 60 [0 0 0 0] ------- [1:0 0:0 30 0] [15 0] 0 0
r 100.194874447 _0_ AGT  --- 39 ack 60 [13a 0 1 800] ------- [1:0 0:0 30 0] [15 0] 1 0
s 100.194874447 _0_ AGT  --- 40 tcp 1040 [0 0 0 0] ------- [0:0 1:0 32 0] [20 0] 0 0
r 100.194874447 _0_ RTR  --- 40 tcp 1040 [0 0 0 0] ------- [0:0 1:0 32 0] [20 0] 0 0
s 100.194874447 _0_ RTR  --- 40 tcp 1060 [0 0 0 0] ------- [0:0 1:0 30 1] [20 0] 0 0
r 100.204930528 _1_ AGT  --- 32 tcp 1060 [13a 1 0 800] ------- [0:0 1:0 30 1] [16 0] 1 0
s 100.204930528 _1_ AGT  --- 41 ack 40 [0 0 0 0] ------- [1:0 0:0 32 0] [16 0] 0 0
r 100.204930528 _1_ RTR  --- 41 ack 40 [0 0 0 0] ------- [1:0 0:0 32 0] [16 0] 0 0
s 100.204930528 _1_ RTR  --- 41 ack 60 [0 0 0 0] ------- [1:0 0:0 30 0] [16 0] 0 0
r 100.206906611 _0_ AGT  --- 41 ack 60 [13a 0 1 800] ------- [1:0 0:0 30 0] [16 0] 1 0
s 100.206906611 _0_ AGT  --- 42 tcp 1040 [0 0 0 0] ------- [0:0 1:0 32 0] [21 0] 0 0
r 100.206906611 _0_ RTR  --- 42 tcp 1040 [0 0 0 0] ------- [0:0 1:0 32 0] [21 0] 0 0
s 100.206906611 _0_ AGT  --- 43 tcp 1040 [0 0 0 0] ------- [0:0 1:0 32 0] [22 0] 0 0
r 100.206906611 _0_ RTR  --- 43 tcp 1040 [0 0 0 0] ------- [0:0 1:0 32 0] [22 0] 0 0
s 100.206906611 _0_ RTR  --- 42 tcp 1060 [0 0 0 0] ------- [0:0 1:0 30 1] [21 0] 0 0
s 100.206906611 _0_ RTR  --- 43 tcp 1060 [0 0 0 0] ------- [0:0 1:0 30 1] [22 0] 0 0
r 100.217022695 _1_ AGT  --- 34 tcp 1060 [13a 1 0 800] ------- [0:0 1:0 30 1] [17 0] 1 0
s 100.217022695 _1_ AGT  --- 44 ack 40 [0 0 0 0] ------- [1:0 0:0 32 0] [17 0] 0 0
r 100.217022695 _1_ RTR  --- 44 ack 40 [0 0 0 0] ------- [1:0 0:0 32 0] [17 0] 0 0
s 100.217022695 _1_ RTR  --- 44 ack 60 [0 0 0 0] ------- [1:0 0:0 30 0] [17 0] 0 0
r 100.226958808 _1_ AGT  --- 37 tcp 1060 [13a 1 0 800] ------- [0:0 1:0 30 1] [18 0] 1 0
s 100.226958808 _1_ AGT  --- 45 ack 40 [0 0 0 0] ------- [1:0 0:0 32 0] [18 0] 0 0
r 100.226958808 _1_ RTR  --- 45 ack 40 [0 0 0 0] ------- [1:0 0:0 32 0] [18 0] 0 0
s 100.226958808 _1_ RTR  --- 45 ack 60 [0 0 0 0] ------- [1:0 0:0 30 0] [18 0] 0 0
r 100.237134923 _1_ AGT  --- 38 tcp 1060 [13a 1 0 800] ------- [0:0 1:0 30 1] [19 0] 1 0
s 100.237134923 _1_ AGT  --- 46 ack 40 [0 0 0 0] ------- [1:0 0:0 32 0] [19 0] 0 0
r 100.237134923 _1_ RTR  --- 46 ack 40 [0 0 0 0] ------- [1:0 0:0 32 0] [19 0] 0 0
s 100.237134923 _1_ RTR  --- 46 ack 60 [0 0 0 0] ------- [1:0 0:0 30 0] [19 0] 0 0
r 100.239131011 _0_ AGT  --- 44 ack 60 [13a 0 1 800] ------- [1:0 0:0 30 0] [17 0] 1 0
s 100.239131011 _0_ AGT  --- 47 tcp 1040 [0 0 0 0] ------- [0:0 1:0 32 0] [23 0] 0 0
r 100.239131011 _0_ RTR  --- 47 tcp 1040 [0 0 0 0] ------- [0:0 1:0 32 0] [23 0] 0 0
s 100.239131011 _0_ RTR  --- 47 tcp 1060 [0 0 0 0] ------- [0:0 1:0 30 1] [23 0] 0 0
r 100.249307099 _1_ AGT  --- 40 tcp 1060 [13a 1 0 800] ------- [0:0 1:0 30 1] [20 0] 1 0
s 100.249307099 _1_ AGT  --- 48 ack 40 [0 0 0 0] ------- [1:0 0:0 32 0] [20 0] 0 0
r 100.249307099 _1_ RTR  --- 48 ack 40 [0 0 0 0] ------- [1:0 0:0 32 0] [20 0] 0 0
s 100.249307099 _1_ RTR  --- 48 ack 60 [0 0 0 0] ------- [1:0 0:0 30 0] [20 0] 0 0
r 100.259263219 _1_ AGT  --- 42 tcp 1060 [13a 1 0 800] ------- [0:0 1:0 30 1] [21 0] 1 0
s 100.259263219 _1_ AGT  --- 49 ack 40 [0 0 0 0] ------- [1:0 0:0 32 0] [21 0] 0 0
r 100.259263219 _1_ RTR  --- 49 ack 40 [0 0 0 0] ------- [1:0 0:0 32 0] [21 0] 0 0
s 100.259263219 _1_ RTR  --- 49 ack 60 [0 0 0 0] ------- [1:0 0:0 30 0] [21 0] 0 0
r 100.261219310 _0_ AGT  --- 45 ack 60 [13a 0 1 800] ------- [1:0 0:0 30 0] [18 0] 1 0
s 100.261219310 _0_ AGT  --- 50 tcp 1040 [0 0 0 0] ------- [0:0 1:0 32 0] [24 0] 0 0
r 100.261219310 _0_ RTR  --- 50 tcp 1040 [0 0 0 0] ------- [0:0 1:0 32 0] [24 0] 0 0
s 100.261219310 _0_ RTR  --- 50 tcp 1060 [0 0 0 0] ------- [0:0 1:0 30 1] [24 0] 0 0
r 100.263395431 _0_ AGT  --- 46 ack 60 [13a 0 1 800] ------- [1:0 0:0 30 0] [19 0] 1 0
s 100.263395431 _0_ AGT  --- 51 tcp 1040 [0 0 0 0] ------- [0:0 1:0 32 0] [25 0] 0 0
r 100.263395431 _0_ RTR  --- 51 tcp 1040 [0 0 0 0] ------- [0:0 1:0 32 0] [25 0] 0 0
s 100.263395431 _0_ RTR  --- 51 tcp 1060 [0 0 0 0] ------- [0:0 1:0 30 1] [25 0] 0 0
r 100.265451554 _0_ AGT  --- 48 ack 60 [13a 0 1 800] ------- [1:0 0:0 30 0] [20 0] 1 0
s 100.265451554 _0_ AGT  --- 52 tcp 1040 [0 0 0 0] ------- [0:0 1:0 32 0] [26 0] 0 0
r 100.265451554 _0_ RTR  --- 52 tcp 1040 [0 0 0 0] ------- [0:0 1:0 32 0] [26 0] 0 0
s 100.265451554 _0_ RTR  --- 52 tcp 1060 [0 0 0 0] ------- [0:0 1:0 30 1] [26 0] 0 0
r 100.275487646 _1_ AGT  --- 43 tcp 1060 [13a 1 0 800] ------- [0:0 1:0 30 1] [22 0] 1 0
s 100.275487646 _1_ AGT  --- 53 ack 40 [0 0 0 0] ------- [1:0 0:0 32 0] [22 0] 0 0
r 100.275487646 _1_ RTR  --- 53 ack 40 [0 0 0 0] ------- [1:0 0:0 32 0] [22 0] 0 0
s 100.275487646 _1_ RTR  --- 53 ack 60 [0 0 0 0] ------- [1:0 0:0 30 0] [22 0] 0 0
r 100.285463770 _1_ AGT  --- 47 tcp 1060 [13a 1 0 800] ------- [0:0 1:0 30 1] [23 0] 1 0
s 100.285463770 _1_ AGT  --- 54 ack 40 [0 0 0 0] ------- [1:0 0:0 32 0] [23 0] 0 0
r 100.285463770 _1_ RTR  --- 54 ack 40 [0 0 0 0] ------- [1:0 0:0 32 0] [23 0] 0 0
s 100.285463770 _1_ RTR  --- 54 ack 60 [0 0 0 0] ------- [1:0 0:0 30 0] [23 0] 0 0
r 100.287559865 _0_ AGT  --- 49 ack 60 [13a 0 1 800] ------- [1:0 0:0 30 0] [21 0] 1 0
s 100.287559865 _0_ AGT  --- 55 tcp 1040 [0 0 0 0] ------- [0:0 1:0 32 0] [27 0] 0 0
r 100.287559865 _0_ RTR  --- 55 tcp 1040 [0 0 0 0] ------- [0:0 1:0 32 0] [27 0] 0 0
s 100.287559865 _0_ RTR  --- 55 tcp 1060 [0 0 0 0] ------- [0:0 1:0 30 1] [27 0] 0 0
r 100.289615992 _0_ AGT  --- 53 ack 60 [13a 0 1 800] ------- [1:0 0:0 30 0] [22 0] 1 0
s 100.289615992 _0_ AGT  --- 56 tcp 1040 [0 0 0 0] ------- [0:0 1:0 32 0] [28 0] 0 0
r 100.289615992 _0_ RTR  --- 56 tcp 1040 [0 0 0 0] ------- [0:0 1:0 32 0] [28 0] 0 0
s 100.289615992 _0_ AGT  --- 57 tcp 1040 [0 0 0 0] ------- [0:0 1:0 32 0] [29 0] 0 0
r 100.289615992 _0_ RTR  --- 57 tcp 1040 [0 0 0 0] ------- [0:0 1:0 32 0] [29 0] 0 0
s 100.289615992 _0_ RTR  --- 56 tcp 1060 [0 0 0 0] ------- [0:0 1:0 30 1] [28 0] 0 0
s 100.289615992 _0_ RTR  --- 57 tcp 1060 [0 0 0 0] ------- [0:0 1:0 30 1] [29 0] 0 0
r 100.299732087 _1_ AGT  --- 50 tcp 1060 [13a 1 0 800] ------- [0:0 1:0 30 1] [24 0] 1 0
s 100.299732087 _1_ AGT  --- 58 ack 40 [0 0 0 0] ------- [1:0 0:0 32 0] [24 0] 0 0
r 100.299732087 _1_ RTR  --- 58 ack 40 [0 0 0 0] ------- [1:0 0:0 32 0] [24 0] 0 0
s 100.299732087 _1_ RTR  --- 58 ack 60 [0 0 0 0] ------- [1:0 0:0 30 0] [24 0] 0 0
r 100.301688184 _0_ AGT  --- 54 ack 60 [13a 0 1 800] ------- [1:0 0:0 30 0] [23 0] 1 0
s 100.301688184 _0_ AGT  --- 59 tcp 1040 [0 0 0 0] ------- [0:0 1:0 32 0] [30 0] 0 0
r 100.301688184 _0_ RTR  --- 59 tcp 1040 [0 0 0 0] ------- [0:0 1:0 32 0] [30 0] 0 0
s 100.301688184 _0_ RTR  --- 59 tcp 1060 [0 0 0 0] ------- [0:0 1:0 30 1] [30 0] 0 0
r 100.312550346 _1_ AGT  --- 51 tcp 1060 [13a 1 0 800] ------- [0:0 1:0 30 1] [25 0] 1 0
s 100.312550346 _1_ AGT  --- 60 ack 40 [0 0 0 0] ------- [1:0 0:0 32 0] [25 0] 0 0
r 100.312550346 _1_ RTR  --- 60 ack 40 [0 0 0 0] ------- [1:0 0:0 32 0] [25 0] 0 0
s 100.312550346 _1_ RTR  --- 60 ack 60 [0 0 0 0] ------- [1:0 0:0 30 0] [25 0] 0 0
r 100.322546478 _1_ AGT  --- 52 tcp 1060 [13a 1 0 800] ------- [0:0 1:0 30 1] [26 0] 1 0
s 100.322546478 _1_ AGT  --- 61 ack 40 [0 0 0 0] ------- [1:0 0:0 32 0] [26 0] 0 0
r 100.322546478 _1_ RTR  --- 61 ack 40 [0 0 0 0] ------- [1:0 0:0 32 0] [26 0] 0 0
s 100.322546478 _1_ RTR  --- 61 ack 60 [0 0 0 0] ------- [1:0 0:0 30 0] [26 0] 0 0
r 100.324702579 _0_ AGT  --- 58 ack 60 [13a 0 1 800] ------- [1:0 0:0 30 0] [24 0] 1 0
s 100.324702579 _0_ AGT  --- 62 tcp 1040 [0 0 0 0] ------- [0:0 1:0 32 0] [31 0] 0 0
r 100.324702579 _0_ RTR  --- 62 tcp 1040 [0 0 0 0] ------- [0:0 1:0 32 0] [31 0] 0 0
s 100.324702579 _0_ RTR  --- 62 tcp 1060 [0 0 0 0] ------- [0:0 1:0 30 1] [31 0] 0 0
r 100.334758679 _1_ AGT  --- 55 tcp 1060 [13a 1 0 800] ------- [0:0 1:0 30 1] [27 0] 1 0
s 100.334758679 _1_ AGT  --- 63 ack 40 [0 0 0 0] ------- [1:0 0:0 32 0] [27 0] 0 0
r 100.334758679 _1_ RTR  --- 63 ack 40 [0 0 0 0] ------- [1:0 0:0 32 0] [27 0] 0 0
s 100.334758679 _1_ RTR  --- 63 ack 60 [0 0 0 0] ------- [1:0 0:0 30 0] [27 0] 0 0
r 100.344814815 _1_ AGT  --- 56 tcp 1060 [13a 1 0 800] ------- [0:0 1:0 30 1] [28 0] 1 0
s 100.344814815 _1_ AGT  --- 64 ack 40 [0 0 0 0] ------- [1:0 0:0 32 0] [28 0] 0 0
r 100.344814815 _1_ RTR  --- 64 ack 40 [0 0 0 0] ------- [1:0 0:0 32 0] [28 0] 0 0
s 100.344814815 _1_ RTR  --- 64 ack 60 [0 0 0 0] ------- [1:0 0:0 30 0] [28 0] 0 0
r 100.354810953 _1_ AGT  --- 57 tcp 1060 [13a 1 0 800] ------- [0:0 1:0 30 1] [29 0] 1 0
s 100.354810953 _1_ AGT  --- 65 ack 40 [0 0 0 0] ------- [1:0 0:0 32 0] [29 0] 0 0
r 100.354810953 _1_ RTR  --- 65 ack 40 [0 0 0 0] ------- [1:0 0:0 32 0] [29 0] 0 0
s 100.354810953 _1_ RTR  --- 65 ack 60 [0 0 0 0] ------- [1:0 0:0 30 0] [29 0] 0 0
r 100.357047058 _0_ AGT  --- 60 ack 60 [13a 0 1 800] ------- [1:0 0:0 30 0] [25 0] 1 0
s 100.357047058 _0_ AGT  --- 66 tcp 1040 [0 0 0 0] ------- [0:0 1:0 32 0] [32 0] 0 0
r 100.357047058 _0_ RTR  --- 66 tcp 1040 [0 0 0 0] ------- [0:0 1:0 32 0] [32 0] 0 0
s 100.357047058 _0_ RTR  --- 66 tcp 1060 [0 0 0 0] ------- [0:0 1:0 30 1] [32 0] 0 0
r 100.359103199 _0_ AGT  --- 61 ack 60 [13a 0 1 800] ------- [1:0 0:0 30 0] [26 0] 1 0
s 100.359103199 _0_ AGT  --- 67 tcp 1040 [0 0 0 0] ------- [0:0 1:0 32 0] [33 0] 0 0
r 100.359103199 _0_ RTR  --- 67 tcp 1040 [0 0 0 0] ------- [0:0 1:0 32 0] [33 0] 0 0
s 100.359103199 _0_ RTR  --- 67 tcp 1060 [0 0 0 0] ------- [0:0 1:0 30 1] [33 0] 0 0
r 100.369199305 _1_ AGT  --- 59 tcp 1060 [13a 1 0 800] ------- [0:0 1:0 30 1] [30 0] 1 0
s 100.369199305 _1_ AGT  --- 68 ack 40 [0 0 0 0] ------- [1:0 0:0 32 0] [30 0] 0 0
r 100.369199305 _1_ RTR  --- 68 ack 40 [0 0 0 0] ------- [1:0 0:0 32 0] [30 0] 0 0
s 100.369199305 _1_ RTR  --- 68 ack 60 [0 0 0 0] ------- [1:0 0:0 30 0] [30 0] 0 0
r 100.381181448 _1_ AGT  --- 62 tcp 1060 [13a 1 0 800] ------- [0:0 1:0 30 1] [31 0] 1 0
s 100.381181448 _1_ AGT  --- 69 ack 40 [0 0 0 0] ------- [1:0 0:0 32 0] [31 0] 0 0
r 100.381181448 _1_ RTR  --- 69 ack 40 [0 0 0 0] ------- [1:0 0:0 32 0] [31 0] 0 0
s 100.381181448 _1_ RTR  --- 69 ack 60 [0 0 0 0] ------- [1:0 0:0 30 0] [31 0] 0 0
r 100.391417593 _1_ AGT  --- 66 tcp 1060 [13a 1 0 800] ------- [0:0 1:0 30 1] [32 0] 1 0
s 100.391417593 _1_ AGT  --- 70 ack 40 [0 0 0 0] ------- [1:0 0:0 32 0] [32 0] 0 0
r 100.391417593 _1_ RTR  --- 70 ack 40 [0 0 0 0] ------- [1:0 0:0 32 0] [32 0] 0 0
s 100.391417593 _1_ RTR  --- 70 ack 60 [0 0 0 0] ------- [1:0 0:0 30 0] [32 0] 0 0
r 100.393433704 _0_ AGT  --- 63 ack 60 [13a 0 1 800] ------- [1:0 0:0 30 0] [27 0] 1 0
s 100.393433704 _0_ AGT  --- 71 tcp 1040 [0 0 0 0] ------- [0:0 1:0 32 0] [34 0] 0 0
r 100.393433704 _0_ RTR  --- 71 tcp 1040 [0 0 0 0] ------- [0:0 1:0 32 0] [34 0] 0 0
s 100.393433704 _0_ RTR  --- 71 tcp 1060 [0 0 0 0] ------- [0:0 1:0 30 1] [34 0] 0 0
r 100.403589814 _1_ AGT  --- 67 tcp 1060 [13a 1 0 800] ------- [0:0 1:0 30 1] [33 0] 1 0
s 100.403589814 _1_ AGT  --- 72 ack 40 [0 0 0 0] ------- [1:0 0:0 32 0] [33 0] 0 0
r 100.403589814 _1_ RTR  --- 72 ack 40 [0 0 0 0] ------- [1:0 0:0 32 0] [33 0] 0 0
s 100.403589814 _1_ RTR  --- 72 ack 60 [0 0 0 0] ------- [1:0 0:0 30 0] [33 0] 0 0
r 100.413565964 _1_ AGT  --- 71 tcp 1060 [13a 1 0 800] ------- [0:0 1:0 30 1] [34 0] 1 0
s 100.413565964 _1_ AGT  --- 73 ack 40 [0 0 0 0] ------- [1:0 0:0 32 0] [34 0] 0 0
r 100.413565964 _1_ RTR  --- 73 ack 40 [0 0 0 0] ------- [1:0 0:0 32 0] [34 0] 0 0
s 100.413565964 _1_ RTR  --- 73 ack 60 [0 0 0 0] ------- [1:0 0:0 30 0] [34 0] 0 0
r 100.415582078 _0_ AGT  --- 64 ack 60 [13a 0 1 800] ------- [1:0 0:0 30 0] [28 0] 1 0
s 100.415582078 _0_ AGT  --- 74 tcp 1040 [0 0 0 0] ------- [0:0 1:0 32 0] [35 0] 0 0
r 100.415582078 _0_ RTR  --- 74 tcp 1040 [0 0 0 0] ------- [0:0 1:0 32 0] [35 0] 0 0
s 100.415582078 _0_ RTR  --- 74 tcp 1060 [0 0 0 0] ------- [0:0 1:0 30 1] [35 0] 0 0
r 100.417738230 _0_ AGT  --- 65 ack 60 [13a 0 1 800] ------- [1:0 0:0 30 0] [29 0] 1 0
s 100.417738230 _0_ AGT  --- 75 tcp 1040 [0 0 0 0] ------- [0:0 1:0 32 0] [36 0] 0 0
r 100.417738230 _0_ RTR  --- 75 tcp 1040 [0 0 0 0] ------- [0:0 1:0 32 0] [36 0] 0 0
s 100.417738230 _0_ RTR  --- 75 tcp 1060 [0 0 0 0] ------- [0:0 1:0 30 1] [36 0] 0 0
r 100.419854382 _0_ AGT  --- 68 ack 60 [13a 0 1 800] ------- [1:0 0:0 30 0] [30 0] 1 0
s 100.419854382 _0_ AGT  --- 76 tcp 1040 [0 0 0 0] ------- [0:0 1:0 32 0] [37 0] 0 0
r 100.419854382 _0_ RTR  --- 76 tcp 1040 [0 0 0 0] ------- [0:0 1:0 32 0] [37 0] 0 0
s 100.419854382 _0_ AGT  --- 77 tcp 1040 [0 0 0 0] ------- [0:0 1:0 32 0] [38 0] 0 0
r 100.419854382 _0_ RTR  --- 77 tcp 1040 [0 0 0 0] ------- [0:0 1:0 32 0] [38 0] 0 0
s 100.419854382 _0_ RTR  --- 76 tcp 1060 [0 0 0 0] ------- [0:0 1:0 30 1] [37 0] 0 0
s 100.419854382 _0_ RTR  --- 77 tcp 1060 [0 0 0 0] ------- [0:0 1:0 30 1] [38 0] 0 0
r 100.429890497 _1_ AGT  --- 74 tcp 1060 [13a 1 0 800] ------- [0:0 1:0 30 1] [35 0] 1 0
s 100.429890497 _1_ AGT  --- 78 ack 40 [0 0 0 0] ------- [1:0 0:0 32 0] [35 0] 0 0
r 100.429890497 _1_ RTR  --- 78 ack 40 [0 0 0 0] ------- [1:0 0:0 32 0] [35 0] 0 0
s 100.429890497 _1_ RTR  --- 78 ack 60 [0 0 0 0] ------- [1:0 0:0 30 0] [35 0] 0 0
r 100.431886613 _0_ AGT  --- 69 ack 60 [13a 0 1 800] ------- [1:0 0:0 30 0] [31 0] 1 0
s 100.431886613 _0_ AGT  --- 79 tcp 1040 [0 0 0 0] ------- [0:0 1:0 32 0] [39 0] 0 0
r 100.431886613 _0_ RTR  --- 79 tcp 1040 [0 0 0 0] ------- [0:0 1:0 32 0] [39 0] 0 0
s 100.431886613 _0_ RTR  --- 79 tcp 1060 [0 0 0 0] ------- [0:0 1:0 30 1] [39 0] 0 0
r 100.442202729 _1_ AGT  --- 75 tcp 1060 [13a 1 0 800] ------- [0:0 1:0 30 1] [36 0] 1 0
s 100.442202729 _1_ AGT  --- 80 ack 40 [0 0 0 0] ------- [1:0 0:0 32 0] [36 0] 0 0
r 100.442202729 _1_ RTR  --- 80 ack 40 [0 0 0 0] ------- [1:0 0:0 32 0] [36 0] 0 0
s 100.442202729 _1_ RTR  --- 80 ack 60 [0 0 0 0] ------- [1:0 0:0 30 0] [36 0] 0 0
r 100.444158847 _0_ AGT  --- 70 ack 60 [13a 0 1 800] ------- [1:0 0:0 30 0] [32 0] 1 0
s 100.444158847 _0_ AGT  --- 81 tcp 1040 [0 0 0 0] ------- [0:0 1:0 32 0] [40 0] 0 0
r 100.444158847 _0_ RTR  --- 81 tcp 1040 [0 0 0 0] ------- [0:0 1:0 32 0] [40 0] 0 0
s 100.444158847 _0_ RTR  --- 81 tcp 1060 [0 0 0 0] ------- [0:0 1:0 30 1] [40 0] 0 0
r 100.454194965 _1_ AGT  --- 76 tcp 1060 [13a 1 0 800] ------- [0:0 1:0 30 1] [37 0] 1 0
s 100.454194965 _1_ AGT  --- 82 ack 40 [0 0 0 0] ------- [1:0 0:0 32 0] [37 0] 0 0
r 100.454194965 _1_ RTR  --- 82 ack 40 [0 0 0 0] ------- [1:0 0:0 32 0] [37 0] 0 0
s 100.454194965 _1_ RTR  --- 82 ack 60 [0 0 0 0] ------- [1:0 0:0 30 0] [37 0] 0 0
r 100.456191085 _0_ AGT  --- 72 ack 60 [13a 0 1 800] ------- [1:0 0:0 30 0] [33 0] 1 0
s 100.456191085 _0_ AGT  --- 83 tcp 1040 [0 0 0 0] ------- [0:0 1:0 32 0] [41 0] 0 0
r 100.456191085 _0_ RTR  --- 83 tcp 1040 [0 0 0 0] ------- [0:0 1:0 32 0] [41 0] 0 0
s 100.456191085 _0_ RTR  --- 83 tcp 1060 [0 0 0 0] ------- [0:0 1:0 30 1] [41 0] 0 0
r 100.458127245 _0_ AGT  --- 73 ack 60 [13a 0 1 800] ------- [1:0 0:0 30 0] [34 0] 1 0
s 100.458127245 _0_ AGT  --- 84 tcp 1040 [0 0 0 0] ------- [0:0 1:0 32 0] [42 0] 0 0
r 100.458127245 _0_ RTR  --- 84 tcp 1040 [0 0 0 0] ------- [0:0 1:0 32 0] [42 0] 0 0
s 100.458127245 _0_ RTR  --- 84 tcp 1060 [0 0 0 0] ------- [0:0 1:0 30 1] [42 0] 0 0
r 100.460203405 _0_ AGT  --- 78 ack 60 [13a 0 1 800] ------- [1:0 0:0 30 0] [35 0] 1 0
s 100.460203405 _0_ AGT  --- 85 tcp 1040 [0 0 0 0] ------- [0:0 1:0 32 0] [43 0] 0 0
r 100.460203405 _0_ RTR  --- 85 tcp 1040 [0 0 0 0] ------- [0:0 1:0 32 0] [43 0] 0 0
s 100.460203405 _0_ RTR  --- 85 tcp 1060 [0 0 0 0] ------- [0:0 1:0 30 1] [43 0] 0 0
r 100.470159526 _1_ AGT  --- 77 tcp 1060 [13a 1 0 800] ------- [0:0 1:0 30 1] [38 0] 1 0
s 100.470159526 _1_ AGT  --- 86 ack 40 [0 0 0 0] ------- [1:0 0:0 32 0] [38 0] 0 0
r 100.470159526 _1_ RTR  --- 86 ack 40 [0 0 0 0] ------- [1:0 0:0 32 0] [38 0] 0 0
s 100.470159526 _1_ RTR  --- 86 ack 60 [0 0 0 0] ------- [1:0 0:0 30 0] [38 0] 0 0
r 100.480415689 _1_ AGT  --- 79 tcp 1060 [13a 1 0 800] ------- [0:0 1:0 30 1] [39 0] 1 0